MODEL 1
REMARK VINA RESULT:    -7.793      0.000      0.000
REMARK INTER + INTRA:         -14.701
REMARK INTER:                 -11.893
REMARK INTRA:                  -2.809
REMARK UNBOUND:                -2.809
REMARK SMILES CC(CCc1ccccc1)NCC(O)c1ccc(O)c(C(N)=O)c1
REMARK SMILES IDX 11 1 2 3 1 4 3 5 4 6 5 7 6 8 10 9 7 10 9 11 8 12 12 13 13 14
REMARK SMILES IDX 14 15 15 17 24 18 16 19 20 20 17 21 18 22 21 23 22 24 23 25
REMARK SMILES IDX 19 28
REMARK H PARENT 11 2 14 16 22 26 22 27 19 29
REMARK Flexibility Score: inf
ROOT
ATOM      1  N   UNL     1      10.059  12.581  17.922  1.00  0.00    -0.311 NA
ATOM      2  H   UNL     1      11.103  12.646  17.942  1.00  0.00     0.123 HD
ENDROOT
BRANCH   1   3
ATOM      3  C   UNL     1       9.584  12.541  16.525  1.00  0.00     0.051 C 
ATOM      4  C   UNL     1       8.438  13.547  16.377  1.00  0.00     0.024 C 
BRANCH   3   5
ATOM      5  C   UNL     1      10.740  12.851  15.538  1.00  0.00     0.023 C 
BRANCH   5   6
ATOM      6  C   UNL     1      11.138  11.632  14.693  1.00  0.00     0.037 C 
BRANCH   6   7
ATOM      7  C   UNL     1      12.295  10.908  15.326  1.00  0.00    -0.048 A 
ATOM      8  C   UNL     1      12.521   9.549  15.047  1.00  0.00     0.004 A 
ATOM      9  C   UNL     1      13.126  11.567  16.247  1.00  0.00     0.004 A 
ATOM     10  C   UNL     1      13.576   8.869  15.662  1.00  0.00     0.000 A 
ATOM     11  C   UNL     1      14.180  10.884  16.861  1.00  0.00     0.000 A 
ATOM     12  C   UNL     1      14.407   9.536  16.567  1.00  0.00     0.000 A 
ENDBRANCH   6   7
ENDBRANCH   5   6
ENDBRANCH   3   5
ENDBRANCH   1   3
BRANCH   1  13
ATOM     13  C   UNL     1       9.623  11.417  18.714  1.00  0.00     0.117 C 
BRANCH  13  14
ATOM     14  C   UNL     1       9.844  10.110  17.939  1.00  0.00     0.158 C 
BRANCH  14  15
ATOM     15  O   UNL     1       8.682   9.323  17.986  1.00  0.00    -0.387 OA
ATOM     16  H   UNL     1       8.307   9.311  17.066  1.00  0.00     0.211 HD
ENDBRANCH  14  15
BRANCH  14  17
ATOM     17  C   UNL     1      11.039   9.351  18.484  1.00  0.00    -0.017 A 
ATOM     18  C   UNL     1      11.886   9.962  19.422  1.00  0.00     0.024 A 
ATOM     19  C   UNL     1      11.274   8.016  18.120  1.00  0.00     0.010 A 
ATOM     20  C   UNL     1      12.970   9.263  19.980  1.00  0.00     0.081 A 
ATOM     21  C   UNL     1      12.361   7.320  18.650  1.00  0.00     0.047 A 
ATOM     22  C   UNL     1      13.226   7.936  19.559  1.00  0.00     0.128 A 
BRANCH  20  23
ATOM     23  C   UNL     1      13.793   9.935  21.005  1.00  0.00     0.252 C 
ATOM     24  N   UNL     1      14.378  11.213  20.754  1.00  0.00    -0.365 N 
ATOM     25  O   UNL     1      14.029   9.350  22.097  1.00  0.00    -0.269 OA
ATOM     26  H   UNL     1      14.293  11.666  19.816  1.00  0.00     0.159 HD
ATOM     27  H   UNL     1      14.946  11.686  21.492  1.00  0.00     0.159 HD
ENDBRANCH  20  23
BRANCH  22  28
ATOM     28  O   UNL     1      14.339   7.217  19.998  1.00  0.00    -0.507 OA
ATOM     29  H   UNL     1      14.307   6.232  20.222  1.00  0.00     0.293 HD
ENDBRANCH  22  28
ENDBRANCH  14  17
ENDBRANCH  13  14
ENDBRANCH   1  13
TORSDOF 10
ENDMDL
MODEL 2
REMARK VINA RESULT:    -7.749      1.574      4.506
REMARK INTER + INTRA:         -14.634
REMARK INTER:                 -11.964
REMARK INTRA:                  -2.671
REMARK UNBOUND:                -2.809
REMARK SMILES CC(CCc1ccccc1)NCC(O)c1ccc(O)c(C(N)=O)c1
REMARK SMILES IDX 11 1 2 3 1 4 3 5 4 6 5 7 6 8 10 9 7 10 9 11 8 12 12 13 13 14
REMARK SMILES IDX 14 15 15 17 24 18 16 19 20 20 17 21 18 22 21 23 22 24 23 25
REMARK SMILES IDX 19 28
REMARK H PARENT 11 2 14 16 22 26 22 27 19 29
REMARK Flexibility Score: inf
ROOT
ATOM      1  N   UNL     1      14.967  11.416  20.490  1.00  0.00    -0.311 NA
ATOM      2  H   UNL     1      14.863  10.510  19.976  1.00  0.00     0.123 HD
ENDROOT
BRANCH   1   3
ATOM      3  C   UNL     1      15.086  12.528  19.526  1.00  0.00     0.051 C 
ATOM      4  C   UNL     1      16.133  13.513  20.057  1.00  0.00     0.024 C 
BRANCH   3   5
ATOM      5  C   UNL     1      15.465  12.003  18.118  1.00  0.00     0.023 C 
BRANCH   5   6
ATOM      6  C   UNL     1      15.080  10.531  17.912  1.00  0.00     0.037 C 
BRANCH   6   7
ATOM      7  C   UNL     1      14.022  10.407  16.850  1.00  0.00    -0.048 A 
ATOM      8  C   UNL     1      13.145  11.476  16.593  1.00  0.00     0.004 A 
ATOM      9  C   UNL     1      13.861   9.202  16.146  1.00  0.00     0.004 A 
ATOM     10  C   UNL     1      12.141  11.346  15.629  1.00  0.00     0.000 A 
ATOM     11  C   UNL     1      12.855   9.076  15.184  1.00  0.00     0.000 A 
ATOM     12  C   UNL     1      11.997  10.148  14.924  1.00  0.00     0.000 A 
ENDBRANCH   6   7
ENDBRANCH   5   6
ENDBRANCH   3   5
ENDBRANCH   1   3
BRANCH   1  13
ATOM     13  C   UNL     1      13.842  11.582  21.428  1.00  0.00     0.117 C 
BRANCH  13  14
ATOM     14  C   UNL     1      13.318  10.218  21.904  1.00  0.00     0.158 C 
BRANCH  14  15
ATOM     15  O   UNL     1      14.349   9.503  22.535  1.00  0.00    -0.387 OA
ATOM     16  H   UNL     1      14.060   8.553  22.568  1.00  0.00     0.211 HD
ENDBRANCH  14  15
BRANCH  14  17
ATOM     17  C   UNL     1      12.734   9.428  20.749  1.00  0.00    -0.017 A 
ATOM     18  C   UNL     1      11.604   9.912  20.071  1.00  0.00     0.024 A 
ATOM     19  C   UNL     1      13.349   8.250  20.296  1.00  0.00     0.010 A 
ATOM     20  C   UNL     1      11.074   9.224  18.966  1.00  0.00     0.081 A 
ATOM     21  C   UNL     1      12.817   7.547  19.214  1.00  0.00     0.047 A 
ATOM     22  C   UNL     1      11.672   8.008  18.558  1.00  0.00     0.128 A 
BRANCH  20  23
ATOM     23  C   UNL     1       9.920   9.810  18.255  1.00  0.00     0.252 C 
ATOM     24  N   UNL     1       9.667  11.214  18.301  1.00  0.00    -0.365 N 
ATOM     25  O   UNL     1       9.115   9.055  17.646  1.00  0.00    -0.269 OA
ATOM     26  H   UNL     1      10.252  11.845  18.893  1.00  0.00     0.159 HD
ATOM     27  H   UNL     1       8.856  11.620  17.782  1.00  0.00     0.159 HD
ENDBRANCH  20  23
BRANCH  22  28
ATOM     28  O   UNL     1      11.141   7.224  17.532  1.00  0.00    -0.507 OA
ATOM     29  H   UNL     1      11.668   6.502  17.061  1.00  0.00     0.293 HD
ENDBRANCH  22  28
ENDBRANCH  14  17
ENDBRANCH  13  14
ENDBRANCH   1  13
TORSDOF 10
ENDMDL
MODEL 3
REMARK VINA RESULT:    -7.590      2.049      4.425
REMARK INTER + INTRA:         -14.392
REMARK INTER:                 -11.555
REMARK INTRA:                  -2.836
REMARK UNBOUND:                -2.809
REMARK SMILES CC(CCc1ccccc1)NCC(O)c1ccc(O)c(C(N)=O)c1
REMARK SMILES IDX 11 1 2 3 1 4 3 5 4 6 5 7 6 8 10 9 7 10 9 11 8 12 12 13 13 14
REMARK SMILES IDX 14 15 15 17 24 18 16 19 20 20 17 21 18 22 21 23 22 24 23 25
REMARK SMILES IDX 19 28
REMARK H PARENT 11 2 14 16 22 26 22 27 19 29
REMARK Flexibility Score: inf
ROOT
ATOM      1  N   UNL     1      15.044  13.100  20.221  1.00  0.00    -0.311 NA
ATOM      2  H   UNL     1      15.640  13.469  20.999  1.00  0.00     0.123 HD
ENDROOT
BRANCH   1   3
ATOM      3  C   UNL     1      15.793  13.152  18.949  1.00  0.00     0.051 C 
ATOM      4  C   UNL     1      17.280  12.954  19.259  1.00  0.00     0.024 C 
BRANCH   3   5
ATOM      5  C   UNL     1      15.273  12.081  17.956  1.00  0.00     0.023 C 
BRANCH   5   6
ATOM      6  C   UNL     1      14.049  12.557  17.160  1.00  0.00     0.037 C 
BRANCH   6   7
ATOM      7  C   UNL     1      13.435  11.410  16.403  1.00  0.00    -0.048 A 
ATOM      8  C   UNL     1      14.056  10.150  16.397  1.00  0.00     0.004 A 
ATOM      9  C   UNL     1      12.266  11.605  15.649  1.00  0.00     0.004 A 
ATOM     10  C   UNL     1      13.502   9.095  15.665  1.00  0.00     0.000 A 
ATOM     11  C   UNL     1      11.714  10.548  14.918  1.00  0.00     0.000 A 
ATOM     12  C   UNL     1      12.331   9.293  14.928  1.00  0.00     0.000 A 
ENDBRANCH   6   7
ENDBRANCH   5   6
ENDBRANCH   3   5
ENDBRANCH   1   3
BRANCH   1  13
ATOM     13  C   UNL     1      14.573  11.746  20.560  1.00  0.00     0.117 C 
BRANCH  13  14
ATOM     14  C   UNL     1      13.099  11.768  20.992  1.00  0.00     0.158 C 
BRANCH  14  15
ATOM     15  O   UNL     1      12.975  11.269  22.299  1.00  0.00    -0.387 OA
ATOM     16  H   UNL     1      13.448  10.396  22.318  1.00  0.00     0.211 HD
ENDBRANCH  14  15
BRANCH  14  17
ATOM     17  C   UNL     1      12.237  10.981  20.024  1.00  0.00    -0.017 A 
ATOM     18  C   UNL     1      12.609   9.677  19.659  1.00  0.00     0.024 A 
ATOM     19  C   UNL     1      11.029  11.507  19.539  1.00  0.00     0.010 A 
ATOM     20  C   UNL     1      11.802   8.909  18.803  1.00  0.00     0.081 A 
ATOM     21  C   UNL     1      10.232  10.761  18.671  1.00  0.00     0.047 A 
ATOM     22  C   UNL     1      10.616   9.475  18.278  1.00  0.00     0.128 A 
BRANCH  20  23
ATOM     23  C   UNL     1      12.212   7.523  18.499  1.00  0.00     0.252 C 
ATOM     24  N   UNL     1      13.569   7.109  18.658  1.00  0.00    -0.365 N 
ATOM     25  O   UNL     1      11.366   6.709  18.041  1.00  0.00    -0.269 OA
ATOM     26  H   UNL     1      14.311   7.794  18.926  1.00  0.00     0.159 HD
ATOM     27  H   UNL     1      13.846   6.122  18.455  1.00  0.00     0.159 HD
ENDBRANCH  20  23
BRANCH  22  28
ATOM     28  O   UNL     1       9.819   8.806  17.348  1.00  0.00    -0.507 OA
ATOM     29  H   UNL     1       9.938   8.902  16.349  1.00  0.00     0.293 HD
ENDBRANCH  22  28
ENDBRANCH  14  17
ENDBRANCH  13  14
ENDBRANCH   1  13
TORSDOF 10
ENDMDL
MODEL 4
REMARK VINA RESULT:    -7.563      1.816      2.379
REMARK INTER + INTRA:         -14.351
REMARK INTER:                 -11.099
REMARK INTRA:                  -3.252
REMARK UNBOUND:                -2.809
REMARK SMILES CC(CCc1ccccc1)NCC(O)c1ccc(O)c(C(N)=O)c1
REMARK SMILES IDX 11 1 2 3 1 4 3 5 4 6 5 7 6 8 10 9 7 10 9 11 8 12 12 13 13 14
REMARK SMILES IDX 14 15 15 17 24 18 16 19 20 20 17 21 18 22 21 23 22 24 23 25
REMARK SMILES IDX 19 28
REMARK H PARENT 11 2 14 16 22 26 22 27 19 29
REMARK Flexibility Score: inf
ROOT
ATOM      1  N   UNL     1      10.097  13.873  17.023  1.00  0.00    -0.311 NA
ATOM      2  H   UNL     1      11.129  13.705  17.075  1.00  0.00     0.123 HD
ENDROOT
BRANCH   1   3
ATOM      3  C   UNL     1       9.594  13.496  15.687  1.00  0.00     0.051 C 
ATOM      4  C   UNL     1       9.323  14.779  14.895  1.00  0.00     0.024 C 
BRANCH   3   5
ATOM      5  C   UNL     1      10.607  12.580  14.952  1.00  0.00     0.023 C 
BRANCH   5   6
ATOM      6  C   UNL     1      12.045  12.766  15.456  1.00  0.00     0.037 C 
BRANCH   6   7
ATOM      7  C   UNL     1      12.689  11.430  15.714  1.00  0.00    -0.048 A 
ATOM      8  C   UNL     1      13.735  11.314  16.646  1.00  0.00     0.004 A 
ATOM      9  C   UNL     1      12.290  10.298  14.984  1.00  0.00     0.004 A 
ATOM     10  C   UNL     1      14.355  10.079  16.859  1.00  0.00     0.000 A 
ATOM     11  C   UNL     1      12.912   9.065  15.199  1.00  0.00     0.000 A 
ATOM     12  C   UNL     1      13.942   8.955  16.138  1.00  0.00     0.000 A 
ENDBRANCH   6   7
ENDBRANCH   5   6
ENDBRANCH   3   5
ENDBRANCH   1   3
BRANCH   1  13
ATOM     13  C   UNL     1       9.425  13.152  18.119  1.00  0.00     0.117 C 
BRANCH  13  14
ATOM     14  C   UNL     1      10.451  12.554  19.093  1.00  0.00     0.158 C 
BRANCH  14  15
ATOM     15  O   UNL     1      11.649  13.286  19.037  1.00  0.00    -0.387 OA
ATOM     16  H   UNL     1      12.366  12.687  19.372  1.00  0.00     0.211 HD
ENDBRANCH  14  15
BRANCH  14  17
ATOM     17  C   UNL     1      10.694  11.088  18.793  1.00  0.00    -0.017 A 
ATOM     18  C   UNL     1      11.695  10.389  19.487  1.00  0.00     0.024 A 
ATOM     19  C   UNL     1       9.884  10.393  17.881  1.00  0.00     0.010 A 
ATOM     20  C   UNL     1      11.906   9.018  19.264  1.00  0.00     0.081 A 
ATOM     21  C   UNL     1      10.101   9.036  17.635  1.00  0.00     0.047 A 
ATOM     22  C   UNL     1      11.118   8.345  18.300  1.00  0.00     0.128 A 
BRANCH  20  23
ATOM     23  C   UNL     1      12.933   8.320  20.064  1.00  0.00     0.252 C 
ATOM     24  N   UNL     1      13.945   7.536  19.433  1.00  0.00    -0.365 N 
ATOM     25  O   UNL     1      12.884   8.372  21.323  1.00  0.00    -0.269 OA
ATOM     26  H   UNL     1      13.939   7.383  18.400  1.00  0.00     0.159 HD
ATOM     27  H   UNL     1      14.676   7.059  20.008  1.00  0.00     0.159 HD
ENDBRANCH  20  23
BRANCH  22  28
ATOM     28  O   UNL     1      11.338   7.010  17.958  1.00  0.00    -0.507 OA
ATOM     29  H   UNL     1      12.148   6.700  17.438  1.00  0.00     0.293 HD
ENDBRANCH  22  28
ENDBRANCH  14  17
ENDBRANCH  13  14
ENDBRANCH   1  13
TORSDOF 10
ENDMDL
MODEL 5
REMARK VINA RESULT:    -7.483      1.286      1.964
REMARK INTER + INTRA:         -14.229
REMARK INTER:                 -11.783
REMARK INTRA:                  -2.446
REMARK UNBOUND:                -2.809
REMARK SMILES CC(CCc1ccccc1)NCC(O)c1ccc(O)c(C(N)=O)c1
REMARK SMILES IDX 11 1 2 3 1 4 3 5 4 6 5 7 6 8 10 9 7 10 9 11 8 12 12 13 13 14
REMARK SMILES IDX 14 15 15 17 24 18 16 19 20 20 17 21 18 22 21 23 22 24 23 25
REMARK SMILES IDX 19 28
REMARK H PARENT 11 2 14 16 22 26 22 27 19 29
REMARK Flexibility Score: inf
ROOT
ATOM      1  N   UNL     1       9.041  12.907  17.734  1.00  0.00    -0.311 NA
ATOM      2  H   UNL     1       9.967  13.145  18.160  1.00  0.00     0.123 HD
ENDROOT
BRANCH   1   3
ATOM      3  C   UNL     1       9.137  12.959  16.262  1.00  0.00     0.051 C 
ATOM      4  C   UNL     1       8.220  14.080  15.760  1.00  0.00     0.024 C 
BRANCH   3   5
ATOM      5  C   UNL     1      10.603  13.182  15.810  1.00  0.00     0.023 C 
BRANCH   5   6
ATOM      6  C   UNL     1      11.057  12.164  14.754  1.00  0.00     0.037 C 
BRANCH   6   7
ATOM      7  C   UNL     1      12.117  11.257  15.318  1.00  0.00    -0.048 A 
ATOM      8  C   UNL     1      12.102   9.881  15.031  1.00  0.00     0.004 A 
ATOM      9  C   UNL     1      13.098  11.767  16.185  1.00  0.00     0.004 A 
ATOM     10  C   UNL     1      13.068   9.035  15.584  1.00  0.00     0.000 A 
ATOM     11  C   UNL     1      14.062  10.918  16.737  1.00  0.00     0.000 A 
ATOM     12  C   UNL     1      14.049   9.554  16.435  1.00  0.00     0.000 A 
ENDBRANCH   6   7
ENDBRANCH   5   6
ENDBRANCH   3   5
ENDBRANCH   1   3
BRANCH   1  13
ATOM     13  C   UNL     1       8.590  11.597  18.238  1.00  0.00     0.117 C 
BRANCH  13  14
ATOM     14  C   UNL     1       9.552  10.480  17.805  1.00  0.00     0.158 C 
BRANCH  14  15
ATOM     15  O   UNL     1       8.869   9.254  17.752  1.00  0.00    -0.387 OA
ATOM     16  H   UNL     1       7.986   9.436  17.336  1.00  0.00     0.211 HD
ENDBRANCH  14  15
BRANCH  14  17
ATOM     17  C   UNL     1      10.746  10.400  18.736  1.00  0.00    -0.017 A 
ATOM     18  C   UNL     1      11.394   9.171  18.936  1.00  0.00     0.024 A 
ATOM     19  C   UNL     1      11.262  11.552  19.350  1.00  0.00     0.010 A 
ATOM     20  C   UNL     1      12.533   9.080  19.755  1.00  0.00     0.081 A 
ATOM     21  C   UNL     1      12.379  11.468  20.183  1.00  0.00     0.047 A 
ATOM     22  C   UNL     1      13.007  10.241  20.411  1.00  0.00     0.128 A 
BRANCH  20  23
ATOM     23  C   UNL     1      13.209   7.773  19.883  1.00  0.00     0.252 C 
ATOM     24  N   UNL     1      13.678   7.075  18.730  1.00  0.00    -0.365 N 
ATOM     25  O   UNL     1      13.326   7.241  21.020  1.00  0.00    -0.269 OA
ATOM     26  H   UNL     1      13.491   7.440  17.769  1.00  0.00     0.159 HD
ATOM     27  H   UNL     1      14.169   6.158  18.833  1.00  0.00     0.159 HD
ENDBRANCH  20  23
BRANCH  22  28
ATOM     28  O   UNL     1      14.071  10.205  21.313  1.00  0.00    -0.507 OA
ATOM     29  H   UNL     1      14.689  10.990  21.470  1.00  0.00     0.293 HD
ENDBRANCH  22  28
ENDBRANCH  14  17
ENDBRANCH  13  14
ENDBRANCH   1  13
TORSDOF 10
ENDMDL
MODEL 6
REMARK VINA RESULT:    -7.381      2.204      5.543
REMARK INTER + INTRA:         -14.073
REMARK INTER:                 -10.868
REMARK INTRA:                  -3.206
REMARK UNBOUND:                -2.809
REMARK SMILES CC(CCc1ccccc1)NCC(O)c1ccc(O)c(C(N)=O)c1
REMARK SMILES IDX 11 1 2 3 1 4 3 5 4 6 5 7 6 8 10 9 7 10 9 11 8 12 12 13 13 14
REMARK SMILES IDX 14 15 15 17 24 18 16 19 20 20 17 21 18 22 21 23 22 24 23 25
REMARK SMILES IDX 19 28
REMARK H PARENT 11 2 14 16 22 26 22 27 19 29
REMARK Flexibility Score: inf
ROOT
ATOM      1  N   UNL     1      13.470   7.161  18.766  1.00  0.00    -0.311 NA
ATOM      2  H   UNL     1      14.286   7.667  18.347  1.00  0.00     0.123 HD
ENDROOT
BRANCH   1   3
ATOM      3  C   UNL     1      13.334   7.524  20.191  1.00  0.00     0.051 C 
ATOM      4  C   UNL     1      14.728   7.511  20.825  1.00  0.00     0.024 C 
BRANCH   3   5
ATOM      5  C   UNL     1      12.653   8.908  20.348  1.00  0.00     0.023 C 
BRANCH   5   6
ATOM      6  C   UNL     1      13.653  10.025  20.678  1.00  0.00     0.037 C 
BRANCH   6   7
ATOM      7  C   UNL     1      13.836  10.934  19.493  1.00  0.00    -0.048 A 
ATOM      8  C   UNL     1      13.063  12.101  19.367  1.00  0.00     0.004 A 
ATOM      9  C   UNL     1      14.740  10.595  18.472  1.00  0.00     0.004 A 
ATOM     10  C   UNL     1      13.210  12.927  18.249  1.00  0.00     0.000 A 
ATOM     11  C   UNL     1      14.883  11.423  17.354  1.00  0.00     0.000 A 
ATOM     12  C   UNL     1      14.121  12.589  17.244  1.00  0.00     0.000 A 
ENDBRANCH   6   7
ENDBRANCH   5   6
ENDBRANCH   3   5
ENDBRANCH   1   3
BRANCH   1  13
ATOM     13  C   UNL     1      12.257   7.445  17.979  1.00  0.00     0.117 C 
BRANCH  13  14
ATOM     14  C   UNL     1      12.619   7.878  16.549  1.00  0.00     0.158 C 
BRANCH  14  15
ATOM     15  O   UNL     1      14.014   7.946  16.408  1.00  0.00    -0.387 OA
ATOM     16  H   UNL     1      14.384   7.115  16.807  1.00  0.00     0.211 HD
ENDBRANCH  14  15
BRANCH  14  17
ATOM     17  C   UNL     1      11.970   9.204  16.204  1.00  0.00    -0.017 A 
ATOM     18  C   UNL     1      11.032   9.773  17.080  1.00  0.00     0.024 A 
ATOM     19  C   UNL     1      12.346   9.914  15.052  1.00  0.00     0.010 A 
ATOM     20  C   UNL     1      10.454  11.024  16.807  1.00  0.00     0.081 A 
ATOM     21  C   UNL     1      11.761  11.146  14.760  1.00  0.00     0.047 A 
ATOM     22  C   UNL     1      10.802  11.700  15.613  1.00  0.00     0.128 A 
BRANCH  20  23
ATOM     23  C   UNL     1       9.517  11.601  17.792  1.00  0.00     0.252 C 
ATOM     24  N   UNL     1       9.572  11.219  19.167  1.00  0.00    -0.365 N 
ATOM     25  O   UNL     1       8.620  12.399  17.407  1.00  0.00    -0.269 OA
ATOM     26  H   UNL     1      10.230  10.474  19.490  1.00  0.00     0.159 HD
ATOM     27  H   UNL     1       8.915  11.645  19.858  1.00  0.00     0.159 HD
ENDBRANCH  20  23
BRANCH  22  28
ATOM     28  O   UNL     1      10.196  12.898  15.231  1.00  0.00    -0.507 OA
ATOM     29  H   UNL     1      10.634  13.801  15.353  1.00  0.00     0.293 HD
ENDBRANCH  22  28
ENDBRANCH  14  17
ENDBRANCH  13  14
ENDBRANCH   1  13
TORSDOF 10
ENDMDL
MODEL 7
REMARK VINA RESULT:    -7.309      1.467      1.864
REMARK INTER + INTRA:         -13.963
REMARK INTER:                 -10.908
REMARK INTRA:                  -3.055
REMARK UNBOUND:                -2.809
REMARK SMILES CC(CCc1ccccc1)NCC(O)c1ccc(O)c(C(N)=O)c1
REMARK SMILES IDX 11 1 2 3 1 4 3 5 4 6 5 7 6 8 10 9 7 10 9 11 8 12 12 13 13 14
REMARK SMILES IDX 14 15 15 17 24 18 16 19 20 20 17 21 18 22 21 23 22 24 23 25
REMARK SMILES IDX 19 28
REMARK H PARENT 11 2 14 16 22 26 22 27 19 29
REMARK Flexibility Score: inf
ROOT
ATOM      1  N   UNL     1      10.162  14.449  17.170  1.00  0.00    -0.311 NA
ATOM      2  H   UNL     1      10.976  15.067  16.946  1.00  0.00     0.123 HD
ENDROOT
BRANCH   1   3
ATOM      3  C   UNL     1       9.889  13.546  16.035  1.00  0.00     0.051 C 
ATOM      4  C   UNL     1       8.829  14.201  15.143  1.00  0.00     0.024 C 
BRANCH   3   5
ATOM      5  C   UNL     1      11.187  13.243  15.243  1.00  0.00     0.023 C 
BRANCH   5   6
ATOM      6  C   UNL     1      11.232  11.805  14.708  1.00  0.00     0.037 C 
BRANCH   6   7
ATOM      7  C   UNL     1      12.320  11.022  15.391  1.00  0.00    -0.048 A 
ATOM      8  C   UNL     1      12.517   9.664  15.086  1.00  0.00     0.004 A 
ATOM      9  C   UNL     1      13.113  11.626  16.381  1.00  0.00     0.004 A 
ATOM     10  C   UNL     1      13.506   8.930  15.747  1.00  0.00     0.000 A 
ATOM     11  C   UNL     1      14.101  10.889  17.041  1.00  0.00     0.000 A 
ATOM     12  C   UNL     1      14.299   9.542  16.722  1.00  0.00     0.000 A 
ENDBRANCH   6   7
ENDBRANCH   5   6
ENDBRANCH   3   5
ENDBRANCH   1   3
BRANCH   1  13
ATOM     13  C   UNL     1      10.422  13.731  18.431  1.00  0.00     0.117 C 
BRANCH  13  14
ATOM     14  C   UNL     1       9.399  12.605  18.644  1.00  0.00     0.158 C 
BRANCH  14  15
ATOM     15  O   UNL     1       8.701  12.812  19.845  1.00  0.00    -0.387 OA
ATOM     16  H   UNL     1       8.875  12.019  20.417  1.00  0.00     0.211 HD
ENDBRANCH  14  15
BRANCH  14  17
ATOM     17  C   UNL     1      10.075  11.248  18.633  1.00  0.00    -0.017 A 
ATOM     18  C   UNL     1      11.072  10.957  19.578  1.00  0.00     0.024 A 
ATOM     19  C   UNL     1       9.671  10.246  17.737  1.00  0.00     0.010 A 
ATOM     20  C   UNL     1      11.679   9.690  19.622  1.00  0.00     0.081 A 
ATOM     21  C   UNL     1      10.283   8.992  17.757  1.00  0.00     0.047 A 
ATOM     22  C   UNL     1      11.299   8.709  18.674  1.00  0.00     0.128 A 
BRANCH  20  23
ATOM     23  C   UNL     1      12.679   9.420  20.674  1.00  0.00     0.252 C 
ATOM     24  N   UNL     1      13.985   8.950  20.340  1.00  0.00    -0.365 N 
ATOM     25  O   UNL     1      12.360   9.553  21.886  1.00  0.00    -0.269 OA
ATOM     26  H   UNL     1      14.236   8.722  19.352  1.00  0.00     0.159 HD
ATOM     27  H   UNL     1      14.690   8.777  21.091  1.00  0.00     0.159 HD
ENDBRANCH  20  23
BRANCH  22  28
ATOM     28  O   UNL     1      11.927   7.465  18.597  1.00  0.00    -0.507 OA
ATOM     29  H   UNL     1      12.299   7.087  17.736  1.00  0.00     0.293 HD
ENDBRANCH  22  28
ENDBRANCH  14  17
ENDBRANCH  13  14
ENDBRANCH   1  13
TORSDOF 10
ENDMDL
MODEL 8
REMARK VINA RESULT:    -7.286      2.510      4.028
REMARK INTER + INTRA:         -13.929
REMARK INTER:                 -11.626
REMARK INTRA:                  -2.302
REMARK UNBOUND:                -2.809
REMARK SMILES CC(CCc1ccccc1)NCC(O)c1ccc(O)c(C(N)=O)c1
REMARK SMILES IDX 11 1 2 3 1 4 3 5 4 6 5 7 6 8 10 9 7 10 9 11 8 12 12 13 13 14
REMARK SMILES IDX 14 15 15 17 24 18 16 19 20 20 17 21 18 22 21 23 22 24 23 25
REMARK SMILES IDX 19 28
REMARK H PARENT 11 2 14 16 22 26 22 27 19 29
REMARK Flexibility Score: inf
ROOT
ATOM      1  N   UNL     1      13.361   8.855  15.908  1.00  0.00    -0.311 NA
ATOM      2  H   UNL     1      13.916   8.380  15.157  1.00  0.00     0.123 HD
ENDROOT
BRANCH   1   3
ATOM      3  C   UNL     1      13.209  10.288  15.590  1.00  0.00     0.051 C 
ATOM      4  C   UNL     1      11.755  10.537  15.176  1.00  0.00     0.024 C 
BRANCH   3   5
ATOM      5  C   UNL     1      13.612  11.170  16.799  1.00  0.00     0.023 C 
BRANCH   5   6
ATOM      6  C   UNL     1      14.752  10.556  17.624  1.00  0.00     0.037 C 
BRANCH   6   7
ATOM      7  C   UNL     1      15.371  11.593  18.522  1.00  0.00    -0.048 A 
ATOM      8  C   UNL     1      16.447  12.374  18.067  1.00  0.00     0.004 A 
ATOM      9  C   UNL     1      14.917  11.750  19.842  1.00  0.00     0.004 A 
ATOM     10  C   UNL     1      17.043  13.314  18.914  1.00  0.00     0.000 A 
ATOM     11  C   UNL     1      15.515  12.690  20.687  1.00  0.00     0.000 A 
ATOM     12  C   UNL     1      16.576  13.473  20.222  1.00  0.00     0.000 A 
ENDBRANCH   6   7
ENDBRANCH   5   6
ENDBRANCH   3   5
ENDBRANCH   1   3
BRANCH   1  13
ATOM     13  C   UNL     1      12.073   8.160  16.081  1.00  0.00     0.117 C 
BRANCH  13  14
ATOM     14  C   UNL     1      12.098   7.257  17.324  1.00  0.00     0.158 C 
BRANCH  14  15
ATOM     15  O   UNL     1      10.990   6.393  17.310  1.00  0.00    -0.387 OA
ATOM     16  H   UNL     1      10.537   6.523  16.436  1.00  0.00     0.211 HD
ENDBRANCH  14  15
BRANCH  14  17
ATOM     17  C   UNL     1      12.129   8.084  18.595  1.00  0.00    -0.017 A 
ATOM     18  C   UNL     1      13.106   7.830  19.570  1.00  0.00     0.024 A 
ATOM     19  C   UNL     1      11.238   9.152  18.784  1.00  0.00     0.010 A 
ATOM     20  C   UNL     1      13.188   8.614  20.733  1.00  0.00     0.081 A 
ATOM     21  C   UNL     1      11.295   9.922  19.946  1.00  0.00     0.047 A 
ATOM     22  C   UNL     1      12.246   9.651  20.934  1.00  0.00     0.128 A 
BRANCH  20  23
ATOM     23  C   UNL     1      14.272   8.340  21.697  1.00  0.00     0.252 C 
ATOM     24  N   UNL     1      14.908   7.062  21.740  1.00  0.00    -0.365 N 
ATOM     25  O   UNL     1      14.605   9.225  22.530  1.00  0.00    -0.269 OA
ATOM     26  H   UNL     1      14.573   6.276  21.140  1.00  0.00     0.159 HD
ATOM     27  H   UNL     1      15.685   6.883  22.416  1.00  0.00     0.159 HD
ENDBRANCH  20  23
BRANCH  22  28
ATOM     28  O   UNL     1      12.207  10.405  22.109  1.00  0.00    -0.507 OA
ATOM     29  H   UNL     1      12.183  11.415  22.115  1.00  0.00     0.293 HD
ENDBRANCH  22  28
ENDBRANCH  14  17
ENDBRANCH  13  14
ENDBRANCH   1  13
TORSDOF 10
ENDMDL
MODEL 9
REMARK VINA RESULT:    -7.260      1.811      4.917
REMARK INTER + INTRA:         -13.888
REMARK INTER:                 -10.783
REMARK INTRA:                  -3.105
REMARK UNBOUND:                -2.809
REMARK SMILES CC(CCc1ccccc1)NCC(O)c1ccc(O)c(C(N)=O)c1
REMARK SMILES IDX 11 1 2 3 1 4 3 5 4 6 5 7 6 8 10 9 7 10 9 11 8 12 12 13 13 14
REMARK SMILES IDX 14 15 15 17 24 18 16 19 20 20 17 21 18 22 21 23 22 24 23 25
REMARK SMILES IDX 19 28
REMARK H PARENT 11 2 14 16 22 26 22 27 19 29
REMARK Flexibility Score: inf
ROOT
ATOM      1  N   UNL     1      13.616   7.654  18.274  1.00  0.00    -0.311 NA
ATOM      2  H   UNL     1      12.907   7.274  18.943  1.00  0.00     0.123 HD
ENDROOT
BRANCH   1   3
ATOM      3  C   UNL     1      13.087   7.597  16.896  1.00  0.00     0.051 C 
ATOM      4  C   UNL     1      11.579   7.341  16.971  1.00  0.00     0.024 C 
BRANCH   3   5
ATOM      5  C   UNL     1      13.402   8.906  16.127  1.00  0.00     0.023 C 
BRANCH   5   6
ATOM      6  C   UNL     1      12.196   9.428  15.332  1.00  0.00     0.037 C 
BRANCH   6   7
ATOM      7  C   UNL     1      12.089  10.923  15.459  1.00  0.00    -0.048 A 
ATOM      8  C   UNL     1      10.904  11.584  15.091  1.00  0.00     0.004 A 
ATOM      9  C   UNL     1      13.192  11.679  15.892  1.00  0.00     0.004 A 
ATOM     10  C   UNL     1      10.819  12.977  15.179  1.00  0.00     0.000 A 
ATOM     11  C   UNL     1      13.103  13.072  15.978  1.00  0.00     0.000 A 
ATOM     12  C   UNL     1      11.916  13.720  15.623  1.00  0.00     0.000 A 
ENDBRANCH   6   7
ENDBRANCH   5   6
ENDBRANCH   3   5
ENDBRANCH   1   3
BRANCH   1  13
ATOM     13  C   UNL     1      14.004   9.014  18.688  1.00  0.00     0.117 C 
BRANCH  13  14
ATOM     14  C   UNL     1      13.183   9.474  19.902  1.00  0.00     0.158 C 
BRANCH  14  15
ATOM     15  O   UNL     1      12.665   8.359  20.581  1.00  0.00    -0.387 OA
ATOM     16  H   UNL     1      11.745   8.215  20.234  1.00  0.00     0.211 HD
ENDBRANCH  14  15
BRANCH  14  17
ATOM     17  C   UNL     1      12.075  10.419  19.481  1.00  0.00    -0.017 A 
ATOM     18  C   UNL     1      10.807   9.910  19.159  1.00  0.00     0.024 A 
ATOM     19  C   UNL     1      12.273  11.809  19.477  1.00  0.00     0.010 A 
ATOM     20  C   UNL     1       9.749  10.769  18.814  1.00  0.00     0.081 A 
ATOM     21  C   UNL     1      11.236  12.669  19.114  1.00  0.00     0.047 A 
ATOM     22  C   UNL     1       9.982  12.164  18.760  1.00  0.00     0.128 A 
BRANCH  20  23
ATOM     23  C   UNL     1       8.422  10.182  18.541  1.00  0.00     0.252 C 
ATOM     24  N   UNL     1       7.322  10.417  19.421  1.00  0.00    -0.365 N 
ATOM     25  O   UNL     1       8.269   9.419  17.550  1.00  0.00    -0.269 OA
ATOM     26  H   UNL     1       7.451  10.951  20.310  1.00  0.00     0.159 HD
ATOM     27  H   UNL     1       6.383  10.010  19.210  1.00  0.00     0.159 HD
ENDBRANCH  20  23
BRANCH  22  28
ATOM     28  O   UNL     1       9.006  13.066  18.333  1.00  0.00    -0.507 OA
ATOM     29  H   UNL     1       8.389  12.883  17.553  1.00  0.00     0.293 HD
ENDBRANCH  22  28
ENDBRANCH  14  17
ENDBRANCH  13  14
ENDBRANCH   1  13
TORSDOF 10
ENDMDL
MODEL 10
REMARK VINA RESULT:    -7.247      1.937      2.841
REMARK INTER + INTRA:         -13.869
REMARK INTER:                 -10.531
REMARK INTRA:                  -3.338
REMARK UNBOUND:                -2.809
REMARK SMILES CC(CCc1ccccc1)NCC(O)c1ccc(O)c(C(N)=O)c1
REMARK SMILES IDX 11 1 2 3 1 4 3 5 4 6 5 7 6 8 10 9 7 10 9 11 8 12 12 13 13 14
REMARK SMILES IDX 14 15 15 17 24 18 16 19 20 20 17 21 18 22 21 23 22 24 23 25
REMARK SMILES IDX 19 28
REMARK H PARENT 11 2 14 16 22 26 22 27 19 29
REMARK Flexibility Score: inf
ROOT
ATOM      1  N   UNL     1      11.567  14.494  17.897  1.00  0.00    -0.311 NA
ATOM      2  H   UNL     1      11.157  15.444  17.732  1.00  0.00     0.123 HD
ENDROOT
BRANCH   1   3
ATOM      3  C   UNL     1      13.039  14.588  17.958  1.00  0.00     0.051 C 
ATOM      4  C   UNL     1      13.489  14.161  19.359  1.00  0.00     0.024 C 
BRANCH   3   5
ATOM      5  C   UNL     1      13.696  13.712  16.861  1.00  0.00     0.023 C 
BRANCH   5   6
ATOM      6  C   UNL     1      14.281  12.406  17.418  1.00  0.00     0.037 C 
BRANCH   6   7
ATOM      7  C   UNL     1      13.755  11.223  16.650  1.00  0.00    -0.048 A 
ATOM      8  C   UNL     1      14.332   9.953  16.819  1.00  0.00     0.004 A 
ATOM      9  C   UNL     1      12.721  11.389  15.714  1.00  0.00     0.004 A 
ATOM     10  C   UNL     1      13.865   8.863  16.079  1.00  0.00     0.000 A 
ATOM     11  C   UNL     1      12.257  10.297  14.975  1.00  0.00     0.000 A 
ATOM     12  C   UNL     1      12.826   9.034  15.159  1.00  0.00     0.000 A 
ENDBRANCH   6   7
ENDBRANCH   5   6
ENDBRANCH   3   5
ENDBRANCH   1   3
BRANCH   1  13
ATOM     13  C   UNL     1      10.973  13.906  19.110  1.00  0.00     0.117 C 
BRANCH  13  14
ATOM     14  C   UNL     1       9.832  12.941  18.752  1.00  0.00     0.158 C 
BRANCH  14  15
ATOM     15  O   UNL     1       8.793  13.059  19.689  1.00  0.00    -0.387 OA
ATOM     16  H   UNL     1       9.056  13.780  20.319  1.00  0.00     0.211 HD
ENDBRANCH  14  15
BRANCH  14  17
ATOM     17  C   UNL     1      10.335  11.512  18.672  1.00  0.00    -0.017 A 
ATOM     18  C   UNL     1      11.403  11.101  19.484  1.00  0.00     0.024 A 
ATOM     19  C   UNL     1       9.701  10.569  17.848  1.00  0.00     0.010 A 
ATOM     20  C   UNL     1      11.854   9.770  19.465  1.00  0.00     0.081 A 
ATOM     21  C   UNL     1      10.156   9.251  17.804  1.00  0.00     0.047 A 
ATOM     22  C   UNL     1      11.241   8.845  18.587  1.00  0.00     0.128 A 
BRANCH  20  23
ATOM     23  C   UNL     1      12.942   9.379  20.383  1.00  0.00     0.252 C 
ATOM     24  N   UNL     1      14.145  10.145  20.464  1.00  0.00    -0.365 N 
ATOM     25  O   UNL     1      12.834   8.324  21.065  1.00  0.00    -0.269 OA
ATOM     26  H   UNL     1      14.306  10.956  19.826  1.00  0.00     0.159 HD
ATOM     27  H   UNL     1      14.902   9.868  21.128  1.00  0.00     0.159 HD
ENDBRANCH  20  23
BRANCH  22  28
ATOM     28  O   UNL     1      11.700   7.535  18.445  1.00  0.00    -0.507 OA
ATOM     29  H   UNL     1      12.468   7.282  17.839  1.00  0.00     0.293 HD
ENDBRANCH  22  28
ENDBRANCH  14  17
ENDBRANCH  13  14
ENDBRANCH   1  13
TORSDOF 10
ENDMDL
MODEL 11
REMARK VINA RESULT:    -7.240      1.635      4.395
REMARK INTER + INTRA:         -13.858
REMARK INTER:                 -11.665
REMARK INTRA:                  -2.193
REMARK UNBOUND:                -2.809
REMARK SMILES CC(CCc1ccccc1)NCC(O)c1ccc(O)c(C(N)=O)c1
REMARK SMILES IDX 11 1 2 3 1 4 3 5 4 6 5 7 6 8 10 9 7 10 9 11 8 12 12 13 13 14
REMARK SMILES IDX 14 15 15 17 24 18 16 19 20 20 17 21 18 22 21 23 22 24 23 25
REMARK SMILES IDX 19 28
REMARK H PARENT 11 2 14 16 22 26 22 27 19 29
REMARK Flexibility Score: inf
ROOT
ATOM      1  N   UNL     1      14.435  10.815  20.648  1.00  0.00    -0.311 NA
ATOM      2  H   UNL     1      15.080  10.827  21.473  1.00  0.00     0.123 HD
ENDROOT
BRANCH   1   3
ATOM      3  C   UNL     1      14.566  12.075  19.891  1.00  0.00     0.051 C 
ATOM      4  C   UNL     1      15.579  12.968  20.615  1.00  0.00     0.024 C 
BRANCH   3   5
ATOM      5  C   UNL     1      14.998  11.800  18.428  1.00  0.00     0.023 C 
BRANCH   5   6
ATOM      6  C   UNL     1      14.005  12.364  17.402  1.00  0.00     0.037 C 
BRANCH   6   7
ATOM      7  C   UNL     1      13.465  11.263  16.530  1.00  0.00    -0.048 A 
ATOM      8  C   UNL     1      12.263  11.439  15.825  1.00  0.00     0.004 A 
ATOM      9  C   UNL     1      14.128  10.026  16.460  1.00  0.00     0.004 A 
ATOM     10  C   UNL     1      11.746  10.402  15.042  1.00  0.00     0.000 A 
ATOM     11  C   UNL     1      13.608   8.990  15.678  1.00  0.00     0.000 A 
ATOM     12  C   UNL     1      12.419   9.179  14.967  1.00  0.00     0.000 A 
ENDBRANCH   6   7
ENDBRANCH   5   6
ENDBRANCH   3   5
ENDBRANCH   1   3
BRANCH   1  13
ATOM     13  C   UNL     1      14.703   9.618  19.831  1.00  0.00     0.117 C 
BRANCH  13  14
ATOM     14  C   UNL     1      13.730   8.483  20.183  1.00  0.00     0.158 C 
BRANCH  14  15
ATOM     15  O   UNL     1      14.291   7.244  19.829  1.00  0.00    -0.387 OA
ATOM     16  H   UNL     1      13.817   6.553  20.362  1.00  0.00     0.211 HD
ENDBRANCH  14  15
BRANCH  14  17
ATOM     17  C   UNL     1      12.390   8.687  19.504  1.00  0.00    -0.017 A 
ATOM     18  C   UNL     1      11.571   9.762  19.884  1.00  0.00     0.024 A 
ATOM     19  C   UNL     1      11.982   7.859  18.446  1.00  0.00     0.010 A 
ATOM     20  C   UNL     1      10.347  10.002  19.237  1.00  0.00     0.081 A 
ATOM     21  C   UNL     1      10.758   8.075  17.812  1.00  0.00     0.047 A 
ATOM     22  C   UNL     1       9.924   9.124  18.211  1.00  0.00     0.128 A 
BRANCH  20  23
ATOM     23  C   UNL     1       9.554  11.182  19.638  1.00  0.00     0.252 C 
ATOM     24  N   UNL     1       8.220  11.036  20.126  1.00  0.00    -0.365 N 
ATOM     25  O   UNL     1      10.038  12.337  19.497  1.00  0.00    -0.269 OA
ATOM     26  H   UNL     1       7.755  10.101  20.144  1.00  0.00     0.159 HD
ATOM     27  H   UNL     1       7.673  11.875  20.422  1.00  0.00     0.159 HD
ENDBRANCH  20  23
BRANCH  22  28
ATOM     28  O   UNL     1       8.679   9.246  17.592  1.00  0.00    -0.507 OA
ATOM     29  H   UNL     1       7.818   8.933  18.020  1.00  0.00     0.293 HD
ENDBRANCH  22  28
ENDBRANCH  14  17
ENDBRANCH  13  14
ENDBRANCH   1  13
TORSDOF 10
ENDMDL
MODEL 12
REMARK VINA RESULT:    -7.226      2.145      3.729
REMARK INTER + INTRA:         -13.836
REMARK INTER:                 -10.788
REMARK INTRA:                  -3.048
REMARK UNBOUND:                -2.809
REMARK SMILES CC(CCc1ccccc1)NCC(O)c1ccc(O)c(C(N)=O)c1
REMARK SMILES IDX 11 1 2 3 1 4 3 5 4 6 5 7 6 8 10 9 7 10 9 11 8 12 12 13 13 14
REMARK SMILES IDX 14 15 15 17 24 18 16 19 20 20 17 21 18 22 21 23 22 24 23 25
REMARK SMILES IDX 19 28
REMARK H PARENT 11 2 14 16 22 26 22 27 19 29
REMARK Flexibility Score: inf
ROOT
ATOM      1  N   UNL     1      11.340  14.198  14.396  1.00  0.00    -0.311 NA
ATOM      2  H   UNL     1      10.848  13.761  13.581  1.00  0.00     0.123 HD
ENDROOT
BRANCH   1   3
ATOM      3  C   UNL     1      10.353  14.626  15.406  1.00  0.00     0.051 C 
ATOM      4  C   UNL     1       8.952  14.475  14.804  1.00  0.00     0.024 C 
BRANCH   3   5
ATOM      5  C   UNL     1      10.501  13.801  16.710  1.00  0.00     0.023 C 
BRANCH   5   6
ATOM      6  C   UNL     1       9.471  12.666  16.811  1.00  0.00     0.037 C 
BRANCH   6   7
ATOM      7  C   UNL     1       9.949  11.605  17.766  1.00  0.00    -0.048 A 
ATOM      8  C   UNL     1      10.876  11.923  18.774  1.00  0.00     0.004 A 
ATOM      9  C   UNL     1       9.519  10.276  17.622  1.00  0.00     0.004 A 
ATOM     10  C   UNL     1      11.345  10.929  19.638  1.00  0.00     0.000 A 
ATOM     11  C   UNL     1       9.990   9.284  18.488  1.00  0.00     0.000 A 
ATOM     12  C   UNL     1      10.901   9.611  19.497  1.00  0.00     0.000 A 
ENDBRANCH   6   7
ENDBRANCH   5   6
ENDBRANCH   3   5
ENDBRANCH   1   3
BRANCH   1  13
ATOM     13  C   UNL     1      12.341  13.257  14.928  1.00  0.00     0.117 C 
BRANCH  13  14
ATOM     14  C   UNL     1      12.263  11.903  14.206  1.00  0.00     0.158 C 
BRANCH  14  15
ATOM     15  O   UNL     1      10.976  11.718  13.675  1.00  0.00    -0.387 OA
ATOM     16  H   UNL     1      11.058  11.802  12.689  1.00  0.00     0.211 HD
ENDBRANCH  14  15
BRANCH  14  17
ATOM     17  C   UNL     1      12.636  10.768  15.139  1.00  0.00    -0.017 A 
ATOM     18  C   UNL     1      13.514  11.002  16.209  1.00  0.00     0.024 A 
ATOM     19  C   UNL     1      12.061   9.495  14.995  1.00  0.00     0.010 A 
ATOM     20  C   UNL     1      13.836   9.979  17.117  1.00  0.00     0.081 A 
ATOM     21  C   UNL     1      12.392   8.466  15.877  1.00  0.00     0.047 A 
ATOM     22  C   UNL     1      13.291   8.688  16.924  1.00  0.00     0.128 A 
BRANCH  20  23
ATOM     23  C   UNL     1      14.718  10.298  18.258  1.00  0.00     0.252 C 
ATOM     24  N   UNL     1      15.750  11.277  18.135  1.00  0.00    -0.365 N 
ATOM     25  O   UNL     1      14.597   9.659  19.337  1.00  0.00    -0.269 OA
ATOM     26  H   UNL     1      15.946  11.737  17.218  1.00  0.00     0.159 HD
ATOM     27  H   UNL     1      16.359  11.506  18.953  1.00  0.00     0.159 HD
ENDBRANCH  20  23
BRANCH  22  28
ATOM     28  O   UNL     1      13.644   7.603  17.728  1.00  0.00    -0.507 OA
ATOM     29  H   UNL     1      13.077   7.283  18.503  1.00  0.00     0.293 HD
ENDBRANCH  22  28
ENDBRANCH  14  17
ENDBRANCH  13  14
ENDBRANCH   1  13
TORSDOF 10
ENDMDL
MODEL 13
REMARK VINA RESULT:    -7.180      2.647      5.823
REMARK INTER + INTRA:         -13.767
REMARK INTER:                 -10.603
REMARK INTRA:                  -3.164
REMARK UNBOUND:                -2.809
REMARK SMILES CC(CCc1ccccc1)NCC(O)c1ccc(O)c(C(N)=O)c1
REMARK SMILES IDX 11 1 2 3 1 4 3 5 4 6 5 7 6 8 10 9 7 10 9 11 8 12 12 13 13 14
REMARK SMILES IDX 14 15 15 17 24 18 16 19 20 20 17 21 18 22 21 23 22 24 23 25
REMARK SMILES IDX 19 28
REMARK H PARENT 11 2 14 16 22 26 22 27 19 29
REMARK Flexibility Score: inf
ROOT
ATOM      1  N   UNL     1      13.589   7.337  17.991  1.00  0.00    -0.311 NA
ATOM      2  H   UNL     1      14.554   7.697  18.180  1.00  0.00     0.123 HD
ENDROOT
BRANCH   1   3
ATOM      3  C   UNL     1      12.725   7.577  19.163  1.00  0.00     0.051 C 
ATOM      4  C   UNL     1      13.592   8.146  20.291  1.00  0.00     0.024 C 
BRANCH   3   5
ATOM      5  C   UNL     1      11.560   8.535  18.806  1.00  0.00     0.023 C 
BRANCH   5   6
ATOM      6  C   UNL     1      11.704   9.914  19.468  1.00  0.00     0.037 C 
BRANCH   6   7
ATOM      7  C   UNL     1      10.761  10.902  18.837  1.00  0.00    -0.048 A 
ATOM      8  C   UNL     1      10.871  12.273  19.126  1.00  0.00     0.004 A 
ATOM      9  C   UNL     1       9.725  10.457  17.998  1.00  0.00     0.004 A 
ATOM     10  C   UNL     1       9.972  13.185  18.565  1.00  0.00     0.000 A 
ATOM     11  C   UNL     1       8.827  11.372  17.440  1.00  0.00     0.000 A 
ATOM     12  C   UNL     1       8.952  12.736  17.721  1.00  0.00     0.000 A 
ENDBRANCH   6   7
ENDBRANCH   5   6
ENDBRANCH   3   5
ENDBRANCH   1   3
BRANCH   1  13
ATOM     13  C   UNL     1      13.070   7.949  16.755  1.00  0.00     0.117 C 
BRANCH  13  14
ATOM     14  C   UNL     1      13.973   9.102  16.290  1.00  0.00     0.158 C 
BRANCH  14  15
ATOM     15  O   UNL     1      14.908   9.411  17.292  1.00  0.00    -0.387 OA
ATOM     16  H   UNL     1      14.515   9.111  18.153  1.00  0.00     0.211 HD
ENDBRANCH  14  15
BRANCH  14  17
ATOM     17  C   UNL     1      13.151  10.320  15.918  1.00  0.00    -0.017 A 
ATOM     18  C   UNL     1      13.502  11.582  16.424  1.00  0.00     0.024 A 
ATOM     19  C   UNL     1      12.082  10.221  15.013  1.00  0.00     0.010 A 
ATOM     20  C   UNL     1      12.787  12.733  16.054  1.00  0.00     0.081 A 
ATOM     21  C   UNL     1      11.351  11.355  14.657  1.00  0.00     0.047 A 
ATOM     22  C   UNL     1      11.677  12.608  15.185  1.00  0.00     0.128 A 
BRANCH  20  23
ATOM     23  C   UNL     1      13.236  14.042  16.570  1.00  0.00     0.252 C 
ATOM     24  N   UNL     1      14.609  14.271  16.892  1.00  0.00    -0.365 N 
ATOM     25  O   UNL     1      12.391  14.952  16.783  1.00  0.00    -0.269 OA
ATOM     26  H   UNL     1      15.309  13.497  16.834  1.00  0.00     0.159 HD
ATOM     27  H   UNL     1      14.918  15.205  17.243  1.00  0.00     0.159 HD
ENDBRANCH  20  23
BRANCH  22  28
ATOM     28  O   UNL     1      10.864  13.693  14.853  1.00  0.00    -0.507 OA
ATOM     29  H   UNL     1       9.938  13.826  15.237  1.00  0.00     0.293 HD
ENDBRANCH  22  28
ENDBRANCH  14  17
ENDBRANCH  13  14
ENDBRANCH   1  13
TORSDOF 10
ENDMDL
MODEL 14
REMARK VINA RESULT:    -7.172      2.619      6.169
REMARK INTER + INTRA:         -13.754
REMARK INTER:                 -11.241
REMARK INTRA:                  -2.513
REMARK UNBOUND:                -2.809
REMARK SMILES CC(CCc1ccccc1)NCC(O)c1ccc(O)c(C(N)=O)c1
REMARK SMILES IDX 11 1 2 3 1 4 3 5 4 6 5 7 6 8 10 9 7 10 9 11 8 12 12 13 13 14
REMARK SMILES IDX 14 15 15 17 24 18 16 19 20 20 17 21 18 22 21 23 22 24 23 25
REMARK SMILES IDX 19 28
REMARK H PARENT 11 2 14 16 22 26 22 27 19 29
REMARK Flexibility Score: inf
ROOT
ATOM      1  N   UNL     1      13.452   7.511  18.266  1.00  0.00    -0.311 NA
ATOM      2  H   UNL     1      14.432   7.793  18.027  1.00  0.00     0.123 HD
ENDROOT
BRANCH   1   3
ATOM      3  C   UNL     1      13.132   7.926  19.646  1.00  0.00     0.051 C 
ATOM      4  C   UNL     1      14.246   7.423  20.570  1.00  0.00     0.024 C 
BRANCH   3   5
ATOM      5  C   UNL     1      12.971   9.466  19.738  1.00  0.00     0.023 C 
BRANCH   5   6
ATOM      6  C   UNL     1      11.662   9.883  20.423  1.00  0.00     0.037 C 
BRANCH   6   7
ATOM      7  C   UNL     1      10.714  10.486  19.422  1.00  0.00    -0.048 A 
ATOM      8  C   UNL     1       9.711   9.699  18.830  1.00  0.00     0.004 A 
ATOM      9  C   UNL     1      10.858  11.827  19.027  1.00  0.00     0.004 A 
ATOM     10  C   UNL     1       8.852  10.253  17.876  1.00  0.00     0.000 A 
ATOM     11  C   UNL     1       9.999  12.377  18.071  1.00  0.00     0.000 A 
ATOM     12  C   UNL     1       8.995  11.591  17.497  1.00  0.00     0.000 A 
ENDBRANCH   6   7
ENDBRANCH   5   6
ENDBRANCH   3   5
ENDBRANCH   1   3
BRANCH   1  13
ATOM     13  C   UNL     1      12.523   8.064  17.264  1.00  0.00     0.117 C 
BRANCH  13  14
ATOM     14  C   UNL     1      13.287   8.613  16.050  1.00  0.00     0.158 C 
BRANCH  14  15
ATOM     15  O   UNL     1      14.641   8.248  16.131  1.00  0.00    -0.387 OA
ATOM     16  H   UNL     1      14.801   7.947  17.063  1.00  0.00     0.211 HD
ENDBRANCH  14  15
BRANCH  14  17
ATOM     17  C   UNL     1      13.134  10.118  15.947  1.00  0.00    -0.017 A 
ATOM     18  C   UNL     1      12.211  10.666  15.042  1.00  0.00     0.024 A 
ATOM     19  C   UNL     1      13.850  10.977  16.796  1.00  0.00     0.010 A 
ATOM     20  C   UNL     1      12.014  12.056  14.963  1.00  0.00     0.081 A 
ATOM     21  C   UNL     1      13.679  12.359  16.709  1.00  0.00     0.047 A 
ATOM     22  C   UNL     1      12.785  12.910  15.786  1.00  0.00     0.128 A 
BRANCH  20  23
ATOM     23  C   UNL     1      10.988  12.573  14.036  1.00  0.00     0.252 C 
ATOM     24  N   UNL     1      11.064  12.304  12.635  1.00  0.00    -0.365 N 
ATOM     25  O   UNL     1      10.064  13.309  14.475  1.00  0.00    -0.269 OA
ATOM     26  H   UNL     1      11.881  11.795  12.231  1.00  0.00     0.159 HD
ATOM     27  H   UNL     1      10.324  12.662  11.990  1.00  0.00     0.159 HD
ENDBRANCH  20  23
BRANCH  22  28
ATOM     28  O   UNL     1      12.711  14.301  15.692  1.00  0.00    -0.507 OA
ATOM     29  H   UNL     1      11.848  14.798  15.519  1.00  0.00     0.293 HD
ENDBRANCH  22  28
ENDBRANCH  14  17
ENDBRANCH  13  14
ENDBRANCH   1  13
TORSDOF 10
ENDMDL
MODEL 15
REMARK VINA RESULT:    -7.143      2.450      5.737
REMARK INTER + INTRA:         -13.709
REMARK INTER:                 -10.659
REMARK INTRA:                  -3.050
REMARK UNBOUND:                -2.809
REMARK SMILES CC(CCc1ccccc1)NCC(O)c1ccc(O)c(C(N)=O)c1
REMARK SMILES IDX 11 1 2 3 1 4 3 5 4 6 5 7 6 8 10 9 7 10 9 11 8 12 12 13 13 14
REMARK SMILES IDX 14 15 15 17 24 18 16 19 20 20 17 21 18 22 21 23 22 24 23 25
REMARK SMILES IDX 19 28
REMARK H PARENT 11 2 14 16 22 26 22 27 19 29
REMARK Flexibility Score: inf
ROOT
ATOM      1  N   UNL     1      14.641  10.515  20.464  1.00  0.00    -0.311 NA
ATOM      2  H   UNL     1      15.576  10.146  20.756  1.00  0.00     0.123 HD
ENDROOT
BRANCH   1   3
ATOM      3  C   UNL     1      13.797  10.741  21.655  1.00  0.00     0.051 C 
ATOM      4  C   UNL     1      13.753  12.247  21.934  1.00  0.00     0.024 C 
BRANCH   3   5
ATOM      5  C   UNL     1      12.374  10.162  21.443  1.00  0.00     0.023 C 
BRANCH   5   6
ATOM      6  C   UNL     1      12.261   9.326  20.159  1.00  0.00     0.037 C 
BRANCH   6   7
ATOM      7  C   UNL     1      11.323   9.984  19.184  1.00  0.00    -0.048 A 
ATOM      8  C   UNL     1      11.258  11.385  19.095  1.00  0.00     0.004 A 
ATOM      9  C   UNL     1      10.460   9.205  18.395  1.00  0.00     0.004 A 
ATOM     10  C   UNL     1      10.361  11.995  18.213  1.00  0.00     0.000 A 
ATOM     11  C   UNL     1       9.564   9.818  17.514  1.00  0.00     0.000 A 
ATOM     12  C   UNL     1       9.516  11.212  17.421  1.00  0.00     0.000 A 
ENDBRANCH   6   7
ENDBRANCH   5   6
ENDBRANCH   3   5
ENDBRANCH   1   3
BRANCH   1  13
ATOM     13  C   UNL     1      14.824  11.728  19.647  1.00  0.00     0.117 C 
BRANCH  13  14
ATOM     14  C   UNL     1      15.510  11.394  18.313  1.00  0.00     0.158 C 
BRANCH  14  15
ATOM     15  O   UNL     1      16.133  12.541  17.795  1.00  0.00    -0.387 OA
ATOM     16  H   UNL     1      17.107  12.435  17.958  1.00  0.00     0.211 HD
ENDBRANCH  14  15
BRANCH  14  17
ATOM     17  C   UNL     1      14.517  10.817  17.322  1.00  0.00    -0.017 A 
ATOM     18  C   UNL     1      13.751  11.678  16.520  1.00  0.00     0.024 A 
ATOM     19  C   UNL     1      14.401   9.430  17.140  1.00  0.00     0.010 A 
ATOM     20  C   UNL     1      12.862  11.168  15.559  1.00  0.00     0.081 A 
ATOM     21  C   UNL     1      13.504   8.914  16.204  1.00  0.00     0.047 A 
ATOM     22  C   UNL     1      12.715   9.767  15.427  1.00  0.00     0.128 A 
BRANCH  20  23
ATOM     23  C   UNL     1      12.125  12.119  14.702  1.00  0.00     0.252 C 
ATOM     24  N   UNL     1      12.694  13.381  14.350  1.00  0.00    -0.365 N 
ATOM     25  O   UNL     1      10.956  11.839  14.321  1.00  0.00    -0.269 OA
ATOM     26  H   UNL     1      13.611  13.684  14.747  1.00  0.00     0.159 HD
ATOM     27  H   UNL     1      12.171  14.040  13.731  1.00  0.00     0.159 HD
ENDBRANCH  20  23
BRANCH  22  28
ATOM     28  O   UNL     1      11.781   9.193  14.563  1.00  0.00    -0.507 OA
ATOM     29  H   UNL     1      12.015   8.463  13.904  1.00  0.00     0.293 HD
ENDBRANCH  22  28
ENDBRANCH  14  17
ENDBRANCH  13  14
ENDBRANCH   1  13
TORSDOF 10
ENDMDL
