MODEL 1
REMARK VINA RESULT:    -7.563      0.000      0.000
REMARK INTER + INTRA:         -10.912
REMARK INTER:                  -9.994
REMARK INTRA:                  -0.918
REMARK UNBOUND:                -0.918
REMARK SMILES CN1[C@@H]2CC[C@H]1C[C@@H](OC(=O)C(CO)c1ccccc1)C2
REMARK SMILES IDX 10 1 11 2 9 3 8 4 1 5 2 6 6 7 3 8 5 9 7 10 4 11 21 12 12 13
REMARK SMILES IDX 13 14 14 15 15 17 16 18 20 19 17 20 19 21 18 22
REMARK H PARENT 14 16
REMARK Flexibility Score: inf
ROOT
ATOM      1  C   UNL     1      19.481  33.527  12.270  1.00  0.00     0.316 C 
ATOM      2  O   UNL     1      20.724  33.574  12.054  1.00  0.00    -0.251 OA
ENDROOT
BRANCH   1   3
ATOM      3  O   UNL     1      18.577  34.007  11.315  1.00  0.00    -0.462 OA
BRANCH   3   4
ATOM      4  C   UNL     1      17.617  33.184  10.653  1.00  0.00     0.179 C 
ATOM      5  C   UNL     1      15.233  31.029   8.048  1.00  0.00     0.105 C 
ATOM      6  N   UNL     1      16.134  31.835   8.891  1.00  0.00    -0.300 NA
ATOM      7  C   UNL     1      17.550  31.518   8.666  1.00  0.00     0.060 C 
ATOM      8  C   UNL     1      16.096  33.263   8.552  1.00  0.00     0.060 C 
ATOM      9  C   UNL     1      17.956  32.264   7.384  1.00  0.00     0.021 C 
ATOM     10  C   UNL     1      18.355  32.051   9.885  1.00  0.00     0.064 C 
ATOM     11  C   UNL     1      16.986  33.432   7.310  1.00  0.00     0.021 C 
ATOM     12  C   UNL     1      16.681  34.051   9.757  1.00  0.00     0.064 C 
ENDBRANCH   3   4
ENDBRANCH   1   3
BRANCH   1  13
ATOM     13  C   UNL     1      18.947  32.938  13.550  1.00  0.00     0.155 C 
BRANCH  13  14
ATOM     14  C   UNL     1      20.072  32.440  14.477  1.00  0.00     0.176 C 
BRANCH  14  15
ATOM     15  O   UNL     1      20.568  31.188  14.080  1.00  0.00    -0.395 OA
ATOM     16  H   UNL     1      20.229  31.020  13.162  1.00  0.00     0.210 HD
ENDBRANCH  14  15
ENDBRANCH  13  14
BRANCH  13  17
ATOM     17  C   UNL     1      17.982  33.882  14.255  1.00  0.00    -0.032 A 
ATOM     18  C   UNL     1      18.488  34.927  15.052  1.00  0.00     0.005 A 
ATOM     19  C   UNL     1      16.584  33.744  14.129  1.00  0.00     0.005 A 
ATOM     20  C   UNL     1      17.619  35.808  15.705  1.00  0.00     0.000 A 
ATOM     21  C   UNL     1      15.722  34.627  14.784  1.00  0.00     0.000 A 
ATOM     22  C   UNL     1      16.238  35.658  15.571  1.00  0.00     0.000 A 
ENDBRANCH  13  17
ENDBRANCH   1  13
TORSDOF 6
ENDMDL
MODEL 2
REMARK VINA RESULT:    -7.394      2.521      7.195
REMARK INTER + INTRA:         -10.689
REMARK INTER:                 -10.049
REMARK INTRA:                  -0.640
REMARK UNBOUND:                -0.918
REMARK SMILES CN1[C@@H]2CC[C@H]1C[C@@H](OC(=O)C(CO)c1ccccc1)C2
REMARK SMILES IDX 10 1 11 2 9 3 8 4 1 5 2 6 6 7 3 8 5 9 7 10 4 11 21 12 12 13
REMARK SMILES IDX 13 14 14 15 15 17 16 18 20 19 17 20 19 21 18 22
REMARK H PARENT 14 16
REMARK Flexibility Score: inf
ROOT
ATOM      1  C   UNL     1      17.449  32.359   8.702  1.00  0.00     0.316 C 
ATOM      2  O   UNL     1      18.256  32.963   7.941  1.00  0.00    -0.251 OA
ENDROOT
BRANCH   1   3
ATOM      3  O   UNL     1      17.853  31.949   9.979  1.00  0.00    -0.462 OA
BRANCH   3   4
ATOM      4  C   UNL     1      18.745  32.698  10.803  1.00  0.00     0.179 C 
ATOM      5  C   UNL     1      20.902  34.536  13.818  1.00  0.00     0.105 C 
ATOM      6  N   UNL     1      20.071  33.840  12.819  1.00  0.00    -0.300 NA
ATOM      7  C   UNL     1      20.017  32.390  13.043  1.00  0.00     0.060 C 
ATOM      8  C   UNL     1      18.652  34.203  12.915  1.00  0.00     0.060 C 
ATOM      9  C   UNL     1      18.991  32.169  14.167  1.00  0.00     0.021 C 
ATOM     10  C   UNL     1      19.534  31.724  11.723  1.00  0.00     0.064 C 
ATOM     11  C   UNL     1      18.076  33.380  14.078  1.00  0.00     0.021 C 
ATOM     12  C   UNL     1      17.971  33.810  11.575  1.00  0.00     0.064 C 
ENDBRANCH   3   4
ENDBRANCH   1   3
BRANCH   1  13
ATOM     13  C   UNL     1      16.036  32.085   8.260  1.00  0.00     0.155 C 
BRANCH  13  14
ATOM     14  C   UNL     1      15.439  33.254   7.454  1.00  0.00     0.176 C 
BRANCH  14  15
ATOM     15  O   UNL     1      15.783  34.502   7.999  1.00  0.00    -0.395 OA
ATOM     16  H   UNL     1      15.832  35.145   7.244  1.00  0.00     0.210 HD
ENDBRANCH  14  15
ENDBRANCH  13  14
BRANCH  13  17
ATOM     17  C   UNL     1      15.911  30.751   7.536  1.00  0.00    -0.032 A 
ATOM     18  C   UNL     1      17.073  30.078   7.112  1.00  0.00     0.005 A 
ATOM     19  C   UNL     1      14.656  30.161   7.280  1.00  0.00     0.005 A 
ATOM     20  C   UNL     1      16.981  28.849   6.449  1.00  0.00     0.000 A 
ATOM     21  C   UNL     1      14.570  28.934   6.617  1.00  0.00     0.000 A 
ATOM     22  C   UNL     1      15.731  28.278   6.202  1.00  0.00     0.000 A 
ENDBRANCH  13  17
ENDBRANCH   1  13
TORSDOF 6
ENDMDL
MODEL 3
REMARK VINA RESULT:    -7.306      2.280      6.810
REMARK INTER + INTRA:         -10.573
REMARK INTER:                 -10.004
REMARK INTRA:                  -0.569
REMARK UNBOUND:                -0.918
REMARK SMILES CN1[C@@H]2CC[C@H]1C[C@@H](OC(=O)C(CO)c1ccccc1)C2
REMARK SMILES IDX 10 1 11 2 9 3 8 4 1 5 2 6 6 7 3 8 5 9 7 10 4 11 21 12 12 13
REMARK SMILES IDX 13 14 14 15 15 17 16 18 20 19 17 20 19 21 18 22
REMARK H PARENT 14 16
REMARK Flexibility Score: inf
ROOT
ATOM      1  C   UNL     1      16.809  33.049  11.746  1.00  0.00     0.316 C 
ATOM      2  O   UNL     1      16.138  31.984  11.830  1.00  0.00    -0.251 OA
ENDROOT
BRANCH   1   3
ATOM      3  O   UNL     1      16.592  34.096  12.652  1.00  0.00    -0.462 OA
BRANCH   3   4
ATOM      4  C   UNL     1      16.820  33.983  14.056  1.00  0.00     0.179 C 
ATOM      5  C   UNL     1      18.013  34.279  18.007  1.00  0.00     0.105 C 
ATOM      6  N   UNL     1      17.658  34.249  16.576  1.00  0.00    -0.300 NA
ATOM      7  C   UNL     1      17.232  35.561  16.074  1.00  0.00     0.060 C 
ATOM      8  C   UNL     1      18.814  33.968  15.715  1.00  0.00     0.060 C 
ATOM      9  C   UNL     1      18.521  36.360  15.819  1.00  0.00     0.021 C 
ATOM     10  C   UNL     1      16.460  35.331  14.744  1.00  0.00     0.064 C 
ATOM     11  C   UNL     1      19.578  35.295  15.576  1.00  0.00     0.021 C 
ATOM     12  C   UNL     1      18.274  33.498  14.336  1.00  0.00     0.064 C 
ENDBRANCH   3   4
ENDBRANCH   1   3
BRANCH   1  13
ATOM     13  C   UNL     1      17.866  33.210  10.684  1.00  0.00     0.155 C 
BRANCH  13  14
ATOM     14  C   UNL     1      19.198  32.547  11.083  1.00  0.00     0.176 C 
BRANCH  14  15
ATOM     15  O   UNL     1      20.174  33.494  11.435  1.00  0.00    -0.395 OA
ATOM     16  H   UNL     1      19.867  34.371  11.086  1.00  0.00     0.210 HD
ENDBRANCH  14  15
ENDBRANCH  13  14
BRANCH  13  17
ATOM     17  C   UNL     1      17.374  32.760   9.315  1.00  0.00    -0.032 A 
ATOM     18  C   UNL     1      17.963  31.639   8.698  1.00  0.00     0.005 A 
ATOM     19  C   UNL     1      16.335  33.435   8.642  1.00  0.00     0.005 A 
ATOM     20  C   UNL     1      17.524  31.207   7.442  1.00  0.00     0.000 A 
ATOM     21  C   UNL     1      15.901  32.997   7.387  1.00  0.00     0.000 A 
ATOM     22  C   UNL     1      16.493  31.885   6.788  1.00  0.00     0.000 A 
ENDBRANCH  13  17
ENDBRANCH   1  13
TORSDOF 6
ENDMDL
MODEL 4
REMARK VINA RESULT:    -7.296      2.377      7.159
REMARK INTER + INTRA:         -10.560
REMARK INTER:                 -10.006
REMARK INTRA:                  -0.554
REMARK UNBOUND:                -0.918
REMARK SMILES CN1[C@@H]2CC[C@H]1C[C@@H](OC(=O)C(CO)c1ccccc1)C2
REMARK SMILES IDX 10 1 11 2 9 3 8 4 1 5 2 6 6 7 3 8 5 9 7 10 4 11 21 12 12 13
REMARK SMILES IDX 13 14 14 15 15 17 16 18 20 19 17 20 19 21 18 22
REMARK H PARENT 14 16
REMARK Flexibility Score: inf
ROOT
ATOM      1  C   UNL     1      16.596  33.078  11.211  1.00  0.00     0.316 C 
ATOM      2  O   UNL     1      16.247  31.967  11.698  1.00  0.00    -0.251 OA
ENDROOT
BRANCH   1   3
ATOM      3  O   UNL     1      17.472  33.915  11.913  1.00  0.00    -0.462 OA
BRANCH   3   4
ATOM      4  C   UNL     1      17.909  33.659  13.247  1.00  0.00     0.179 C 
ATOM      5  C   UNL     1      19.159  33.741  17.190  1.00  0.00     0.105 C 
ATOM      6  N   UNL     1      18.715  33.818  15.787  1.00  0.00    -0.300 NA
ATOM      7  C   UNL     1      17.482  34.597  15.628  1.00  0.00     0.060 C 
ATOM      8  C   UNL     1      19.649  34.572  14.941  1.00  0.00     0.060 C 
ATOM      9  C   UNL     1      17.903  36.076  15.658  1.00  0.00     0.021 C 
ATOM     10  C   UNL     1      16.865  34.233  14.247  1.00  0.00     0.064 C 
ATOM     11  C   UNL     1      19.352  36.059  15.195  1.00  0.00     0.021 C 
ATOM     12  C   UNL     1      19.355  34.199  13.462  1.00  0.00     0.064 C 
ENDBRANCH   3   4
ENDBRANCH   1   3
BRANCH   1  13
ATOM     13  C   UNL     1      16.091  33.517   9.861  1.00  0.00     0.155 C 
BRANCH  13  14
ATOM     14  C   UNL     1      16.380  35.005   9.586  1.00  0.00     0.176 C 
BRANCH  14  15
ATOM     15  O   UNL     1      15.368  35.606   8.820  1.00  0.00    -0.395 OA
ATOM     16  H   UNL     1      14.501  35.279   9.176  1.00  0.00     0.210 HD
ENDBRANCH  14  15
ENDBRANCH  13  14
BRANCH  13  17
ATOM     17  C   UNL     1      16.584  32.608   8.743  1.00  0.00    -0.032 A 
ATOM     18  C   UNL     1      15.670  31.779   8.066  1.00  0.00     0.005 A 
ATOM     19  C   UNL     1      17.941  32.576   8.357  1.00  0.00     0.005 A 
ATOM     20  C   UNL     1      16.101  30.939   7.032  1.00  0.00     0.000 A 
ATOM     21  C   UNL     1      18.365  31.735   7.324  1.00  0.00     0.000 A 
ATOM     22  C   UNL     1      17.448  30.918   6.662  1.00  0.00     0.000 A 
ENDBRANCH  13  17
ENDBRANCH   1  13
TORSDOF 6
ENDMDL
MODEL 5
REMARK VINA RESULT:    -7.211      2.579      6.712
REMARK INTER + INTRA:         -10.447
REMARK INTER:                  -9.564
REMARK INTRA:                  -0.883
REMARK UNBOUND:                -0.918
REMARK SMILES CN1[C@@H]2CC[C@H]1C[C@@H](OC(=O)C(CO)c1ccccc1)C2
REMARK SMILES IDX 10 1 11 2 9 3 8 4 1 5 2 6 6 7 3 8 5 9 7 10 4 11 21 12 12 13
REMARK SMILES IDX 13 14 14 15 15 17 16 18 20 19 17 20 19 21 18 22
REMARK H PARENT 14 16
REMARK Flexibility Score: inf
ROOT
ATOM      1  C   UNL     1      17.238  32.727  12.401  1.00  0.00     0.316 C 
ATOM      2  O   UNL     1      16.260  32.024  12.024  1.00  0.00    -0.251 OA
ENDROOT
BRANCH   1   3
ATOM      3  O   UNL     1      17.635  32.724  13.744  1.00  0.00    -0.462 OA
BRANCH   3   4
ATOM      4  C   UNL     1      18.177  33.865  14.409  1.00  0.00     0.179 C 
ATOM      5  C   UNL     1      19.352  36.870  16.999  1.00  0.00     0.105 C 
ATOM      6  N   UNL     1      18.876  35.759  16.156  1.00  0.00    -0.300 NA
ATOM      7  C   UNL     1      19.194  34.444  16.724  1.00  0.00     0.060 C 
ATOM      8  C   UNL     1      17.411  35.698  16.078  1.00  0.00     0.060 C 
ATOM      9  C   UNL     1      18.135  34.179  17.808  1.00  0.00     0.021 C 
ATOM     10  C   UNL     1      19.081  33.393  15.583  1.00  0.00     0.064 C 
ATOM     11  C   UNL     1      16.942  35.015  17.374  1.00  0.00     0.021 C 
ATOM     12  C   UNL     1      17.038  34.838  14.839  1.00  0.00     0.064 C 
ENDBRANCH   3   4
ENDBRANCH   1   3
BRANCH   1  13
ATOM     13  C   UNL     1      18.006  33.568  11.415  1.00  0.00     0.155 C 
BRANCH  13  14
ATOM     14  C   UNL     1      19.407  32.997  11.128  1.00  0.00     0.176 C 
BRANCH  14  15
ATOM     15  O   UNL     1      19.507  31.640  11.477  1.00  0.00    -0.395 OA
ATOM     16  H   UNL     1      19.491  31.121  10.631  1.00  0.00     0.210 HD
ENDBRANCH  14  15
ENDBRANCH  13  14
BRANCH  13  17
ATOM     17  C   UNL     1      17.209  33.830  10.144  1.00  0.00    -0.032 A 
ATOM     18  C   UNL     1      17.422  33.022   9.010  1.00  0.00     0.005 A 
ATOM     19  C   UNL     1      16.251  34.862  10.069  1.00  0.00     0.005 A 
ATOM     20  C   UNL     1      16.698  33.243   7.833  1.00  0.00     0.000 A 
ATOM     21  C   UNL     1      15.531  35.078   8.890  1.00  0.00     0.000 A 
ATOM     22  C   UNL     1      15.754  34.270   7.774  1.00  0.00     0.000 A 
ENDBRANCH  13  17
ENDBRANCH   1  13
TORSDOF 6
ENDMDL
MODEL 6
REMARK VINA RESULT:    -7.138      2.493      6.886
REMARK INTER + INTRA:         -10.351
REMARK INTER:                  -9.641
REMARK INTRA:                  -0.710
REMARK UNBOUND:                -0.918
REMARK SMILES CN1[C@@H]2CC[C@H]1C[C@@H](OC(=O)C(CO)c1ccccc1)C2
REMARK SMILES IDX 10 1 11 2 9 3 8 4 1 5 2 6 6 7 3 8 5 9 7 10 4 11 21 12 12 13
REMARK SMILES IDX 13 14 14 15 15 17 16 18 20 19 17 20 19 21 18 22
REMARK H PARENT 14 16
REMARK Flexibility Score: inf
ROOT
ATOM      1  C   UNL     1      16.392  33.052   8.689  1.00  0.00     0.316 C 
ATOM      2  O   UNL     1      15.775  34.152   8.634  1.00  0.00    -0.251 OA
ENDROOT
BRANCH   1   3
ATOM      3  O   UNL     1      16.759  32.507   9.925  1.00  0.00    -0.462 OA
BRANCH   3   4
ATOM      4  C   UNL     1      17.164  33.294  11.045  1.00  0.00     0.179 C 
ATOM      5  C   UNL     1      18.838  34.935  14.454  1.00  0.00     0.105 C 
ATOM      6  N   UNL     1      18.299  34.263  13.258  1.00  0.00    -0.300 NA
ATOM      7  C   UNL     1      19.352  33.838  12.328  1.00  0.00     0.060 C 
ATOM      8  C   UNL     1      17.653  32.983  13.574  1.00  0.00     0.060 C 
ATOM      9  C   UNL     1      19.926  32.532  12.900  1.00  0.00     0.021 C 
ATOM     10  C   UNL     1      18.689  33.583  10.945  1.00  0.00     0.064 C 
ATOM     11  C   UNL     1      18.789  31.958  13.731  1.00  0.00     0.021 C 
ATOM     12  C   UNL     1      16.736  32.607  12.378  1.00  0.00     0.064 C 
ENDBRANCH   3   4
ENDBRANCH   1   3
BRANCH   1  13
ATOM     13  C   UNL     1      16.729  32.297   7.429  1.00  0.00     0.155 C 
BRANCH  13  14
ATOM     14  C   UNL     1      18.247  32.099   7.257  1.00  0.00     0.176 C 
BRANCH  14  15
ATOM     15  O   UNL     1      18.836  31.520   8.392  1.00  0.00    -0.395 OA
ATOM     16  H   UNL     1      18.753  32.180   9.130  1.00  0.00     0.210 HD
ENDBRANCH  14  15
ENDBRANCH  13  14
BRANCH  13  17
ATOM     17  C   UNL     1      15.951  30.993   7.318  1.00  0.00    -0.032 A 
ATOM     18  C   UNL     1      16.472  29.936   6.548  1.00  0.00     0.005 A 
ATOM     19  C   UNL     1      14.716  30.808   7.973  1.00  0.00     0.005 A 
ATOM     20  C   UNL     1      15.776  28.727   6.436  1.00  0.00     0.000 A 
ATOM     21  C   UNL     1      14.025  29.599   7.857  1.00  0.00     0.000 A 
ATOM     22  C   UNL     1      14.553  28.559   7.090  1.00  0.00     0.000 A 
ENDBRANCH  13  17
ENDBRANCH   1  13
TORSDOF 6
ENDMDL
MODEL 7
REMARK VINA RESULT:    -7.012      3.526      5.951
REMARK INTER + INTRA:         -10.185
REMARK INTER:                  -9.241
REMARK INTRA:                  -0.944
REMARK UNBOUND:                -0.918
REMARK SMILES CN1[C@@H]2CC[C@H]1C[C@@H](OC(=O)C(CO)c1ccccc1)C2
REMARK SMILES IDX 10 1 11 2 9 3 8 4 1 5 2 6 6 7 3 8 5 9 7 10 4 11 21 12 12 13
REMARK SMILES IDX 13 14 14 15 15 17 16 18 20 19 17 20 19 21 18 22
REMARK H PARENT 14 16
REMARK Flexibility Score: inf
ROOT
ATOM      1  C   UNL     1      18.044  33.527  13.315  1.00  0.00     0.316 C 
ATOM      2  O   UNL     1      18.132  32.340  13.733  1.00  0.00    -0.251 OA
ENDROOT
BRANCH   1   3
ATOM      3  O   UNL     1      19.189  34.217  12.897  1.00  0.00    -0.462 OA
BRANCH   3   4
ATOM      4  C   UNL     1      20.445  34.143  13.571  1.00  0.00     0.179 C 
ATOM      5  C   UNL     1      24.199  34.691  15.221  1.00  0.00     0.105 C 
ATOM      6  N   UNL     1      22.872  34.591  14.586  1.00  0.00    -0.300 NA
ATOM      7  C   UNL     1      21.993  35.713  14.937  1.00  0.00     0.060 C 
ATOM      8  C   UNL     1      22.936  34.716  13.125  1.00  0.00     0.060 C 
ATOM      9  C   UNL     1      22.420  36.887  14.041  1.00  0.00     0.021 C 
ATOM     10  C   UNL     1      20.531  35.287  14.621  1.00  0.00     0.064 C 
ATOM     11  C   UNL     1      23.047  36.220  12.827  1.00  0.00     0.021 C 
ATOM     12  C   UNL     1      21.616  34.138  12.543  1.00  0.00     0.064 C 
ENDBRANCH   3   4
ENDBRANCH   1   3
BRANCH   1  13
ATOM     13  C   UNL     1      16.707  34.218  13.241  1.00  0.00     0.155 C 
BRANCH  13  14
ATOM     14  C   UNL     1      15.706  33.457  12.352  1.00  0.00     0.176 C 
BRANCH  14  15
ATOM     15  O   UNL     1      16.288  32.334  11.742  1.00  0.00    -0.395 OA
ATOM     16  H   UNL     1      16.544  31.710  12.469  1.00  0.00     0.210 HD
ENDBRANCH  14  15
ENDBRANCH  13  14
BRANCH  13  17
ATOM     17  C   UNL     1      16.146  34.528  14.622  1.00  0.00    -0.032 A 
ATOM     18  C   UNL     1      14.791  34.261  14.899  1.00  0.00     0.005 A 
ATOM     19  C   UNL     1      16.950  35.074  15.644  1.00  0.00     0.005 A 
ATOM     20  C   UNL     1      14.256  34.535  16.163  1.00  0.00     0.000 A 
ATOM     21  C   UNL     1      16.410  35.345  16.904  1.00  0.00     0.000 A 
ATOM     22  C   UNL     1      15.065  35.076  17.164  1.00  0.00     0.000 A 
ENDBRANCH  13  17
ENDBRANCH   1  13
TORSDOF 6
ENDMDL
MODEL 8
REMARK VINA RESULT:    -6.988      2.577      3.925
REMARK INTER + INTRA:         -10.153
REMARK INTER:                  -9.264
REMARK INTRA:                  -0.889
REMARK UNBOUND:                -0.918
REMARK SMILES CN1[C@@H]2CC[C@H]1C[C@@H](OC(=O)C(CO)c1ccccc1)C2
REMARK SMILES IDX 10 1 11 2 9 3 8 4 1 5 2 6 6 7 3 8 5 9 7 10 4 11 21 12 12 13
REMARK SMILES IDX 13 14 14 15 15 17 16 18 20 19 17 20 19 21 18 22
REMARK H PARENT 14 16
REMARK Flexibility Score: inf
ROOT
ATOM      1  C   UNL     1      18.849  34.698  15.781  1.00  0.00     0.316 C 
ATOM      2  O   UNL     1      19.573  35.713  15.586  1.00  0.00    -0.251 OA
ENDROOT
BRANCH   1   3
ATOM      3  O   UNL     1      18.460  33.888  14.707  1.00  0.00    -0.462 OA
BRANCH   3   4
ATOM      4  C   UNL     1      17.876  34.396  13.508  1.00  0.00     0.179 C 
ATOM      5  C   UNL     1      16.080  35.066   9.842  1.00  0.00     0.105 C 
ATOM      6  N   UNL     1      16.715  34.723  11.127  1.00  0.00    -0.300 NA
ATOM      7  C   UNL     1      15.890  33.823  11.941  1.00  0.00     0.060 C 
ATOM      8  C   UNL     1      17.937  33.927  10.957  1.00  0.00     0.060 C 
ATOM      9  C   UNL     1      16.105  32.412  11.368  1.00  0.00     0.021 C 
ATOM     10  C   UNL     1      16.405  33.902  13.406  1.00  0.00     0.064 C 
ATOM     11  C   UNL     1      17.475  32.481  10.713  1.00  0.00     0.021 C 
ATOM     12  C   UNL     1      18.754  34.027  12.274  1.00  0.00     0.064 C 
ENDBRANCH   3   4
ENDBRANCH   1   3
BRANCH   1  13
ATOM     13  C   UNL     1      18.405  34.329  17.173  1.00  0.00     0.155 C 
BRANCH  13  14
ATOM     14  C   UNL     1      19.468  34.668  18.234  1.00  0.00     0.176 C 
BRANCH  14  15
ATOM     15  O   UNL     1      20.746  34.218  17.865  1.00  0.00    -0.395 OA
ATOM     16  H   UNL     1      20.953  33.432  18.435  1.00  0.00     0.210 HD
ENDBRANCH  14  15
ENDBRANCH  13  14
BRANCH  13  17
ATOM     17  C   UNL     1      17.037  34.907  17.509  1.00  0.00    -0.032 A 
ATOM     18  C   UNL     1      15.898  34.445  16.822  1.00  0.00     0.005 A 
ATOM     19  C   UNL     1      16.874  35.897  18.500  1.00  0.00     0.005 A 
ATOM     20  C   UNL     1      14.631  34.960  17.118  1.00  0.00     0.000 A 
ATOM     21  C   UNL     1      15.605  36.408  18.791  1.00  0.00     0.000 A 
ATOM     22  C   UNL     1      14.485  35.940  18.102  1.00  0.00     0.000 A 
ENDBRANCH  13  17
ENDBRANCH   1  13
TORSDOF 6
ENDMDL
MODEL 9
REMARK VINA RESULT:    -6.912      2.189      3.247
REMARK INTER + INTRA:         -10.052
REMARK INTER:                  -9.009
REMARK INTRA:                  -1.043
REMARK UNBOUND:                -0.918
REMARK SMILES CN1[C@@H]2CC[C@H]1C[C@@H](OC(=O)C(CO)c1ccccc1)C2
REMARK SMILES IDX 10 1 11 2 9 3 8 4 1 5 2 6 6 7 3 8 5 9 7 10 4 11 21 12 12 13
REMARK SMILES IDX 13 14 14 15 15 17 16 18 20 19 17 20 19 21 18 22
REMARK H PARENT 14 16
REMARK Flexibility Score: inf
ROOT
ATOM      1  C   UNL     1      18.716  34.314  15.079  1.00  0.00     0.316 C 
ATOM      2  O   UNL     1      18.443  35.459  14.624  1.00  0.00    -0.251 OA
ENDROOT
BRANCH   1   3
ATOM      3  O   UNL     1      19.366  33.368  14.275  1.00  0.00    -0.462 OA
BRANCH   3   4
ATOM      4  C   UNL     1      18.794  32.813  13.091  1.00  0.00     0.179 C 
ATOM      5  C   UNL     1      16.807  31.957   9.565  1.00  0.00     0.105 C 
ATOM      6  N   UNL     1      17.471  32.359  10.818  1.00  0.00    -0.300 NA
ATOM      7  C   UNL     1      18.295  33.563  10.659  1.00  0.00     0.060 C 
ATOM      8  C   UNL     1      16.517  32.791  11.848  1.00  0.00     0.060 C 
ATOM      9  C   UNL     1      17.324  34.754  10.699  1.00  0.00     0.021 C 
ATOM     10  C   UNL     1      19.284  33.623  11.857  1.00  0.00     0.064 C 
ATOM     11  C   UNL     1      16.137  34.239  11.498  1.00  0.00     0.021 C 
ATOM     12  C   UNL     1      17.243  32.732  13.220  1.00  0.00     0.064 C 
ENDBRANCH   3   4
ENDBRANCH   1   3
BRANCH   1  13
ATOM     13  C   UNL     1      18.363  33.947  16.497  1.00  0.00     0.155 C 
BRANCH  13  14
ATOM     14  C   UNL     1      19.518  34.228  17.477  1.00  0.00     0.176 C 
BRANCH  14  15
ATOM     15  O   UNL     1      20.670  34.686  16.817  1.00  0.00    -0.395 OA
ATOM     16  H   UNL     1      20.880  35.582  17.190  1.00  0.00     0.210 HD
ENDBRANCH  14  15
ENDBRANCH  13  14
BRANCH  13  17
ATOM     17  C   UNL     1      17.051  34.580  16.942  1.00  0.00    -0.032 A 
ATOM     18  C   UNL     1      17.057  35.548  17.965  1.00  0.00     0.005 A 
ATOM     19  C   UNL     1      15.820  34.226  16.353  1.00  0.00     0.005 A 
ATOM     20  C   UNL     1      15.864  36.145  18.386  1.00  0.00     0.000 A 
ATOM     21  C   UNL     1      14.631  34.826  16.778  1.00  0.00     0.000 A 
ATOM     22  C   UNL     1      14.652  35.783  17.793  1.00  0.00     0.000 A 
ENDBRANCH  13  17
ENDBRANCH   1  13
TORSDOF 6
ENDMDL
MODEL 10
REMARK VINA RESULT:    -6.895      3.876      6.318
REMARK INTER + INTRA:         -10.029
REMARK INTER:                  -9.125
REMARK INTRA:                  -0.905
REMARK UNBOUND:                -0.918
REMARK SMILES CN1[C@@H]2CC[C@H]1C[C@@H](OC(=O)C(CO)c1ccccc1)C2
REMARK SMILES IDX 10 1 11 2 9 3 8 4 1 5 2 6 6 7 3 8 5 9 7 10 4 11 21 12 12 13
REMARK SMILES IDX 13 14 14 15 15 17 16 18 20 19 17 20 19 21 18 22
REMARK H PARENT 14 16
REMARK Flexibility Score: inf
ROOT
ATOM      1  C   UNL     1      20.033  33.115  12.210  1.00  0.00     0.316 C 
ATOM      2  O   UNL     1      20.153  32.005  12.798  1.00  0.00    -0.251 OA
ENDROOT
BRANCH   1   3
ATOM      3  O   UNL     1      21.163  33.896  11.935  1.00  0.00    -0.462 OA
BRANCH   3   4
ATOM      4  C   UNL     1      22.187  34.166  12.891  1.00  0.00     0.179 C 
ATOM      5  C   UNL     1      25.223  35.671  15.265  1.00  0.00     0.105 C 
ATOM      6  N   UNL     1      24.148  35.223  14.361  1.00  0.00    -0.300 NA
ATOM      7  C   UNL     1      23.038  36.180  14.288  1.00  0.00     0.060 C 
ATOM      8  C   UNL     1      24.580  35.168  12.958  1.00  0.00     0.060 C 
ATOM      9  C   UNL     1      23.492  37.290  13.326  1.00  0.00     0.021 C 
ATOM     10  C   UNL     1      21.803  35.430  13.712  1.00  0.00     0.064 C 
ATOM     11  C   UNL     1      24.521  36.612  12.434  1.00  0.00     0.021 C 
ATOM     12  C   UNL     1      23.576  34.264  12.190  1.00  0.00     0.064 C 
ENDBRANCH   3   4
ENDBRANCH   1   3
BRANCH   1  13
ATOM     13  C   UNL     1      18.678  33.614  11.780  1.00  0.00     0.155 C 
BRANCH  13  14
ATOM     14  C   UNL     1      17.953  32.613  10.860  1.00  0.00     0.176 C 
BRANCH  14  15
ATOM     15  O   UNL     1      18.777  31.537  10.497  1.00  0.00    -0.395 OA
ATOM     16  H   UNL     1      18.986  31.037  11.329  1.00  0.00     0.210 HD
ENDBRANCH  14  15
ENDBRANCH  13  14
BRANCH  13  17
ATOM     17  C   UNL     1      17.824  34.046  12.964  1.00  0.00    -0.032 A 
ATOM     18  C   UNL     1      16.433  33.829  12.936  1.00  0.00     0.005 A 
ATOM     19  C   UNL     1      18.390  34.657  14.103  1.00  0.00     0.005 A 
ATOM     20  C   UNL     1      15.631  34.214  14.015  1.00  0.00     0.000 A 
ATOM     21  C   UNL     1      17.583  35.040  15.178  1.00  0.00     0.000 A 
ATOM     22  C   UNL     1      16.205  34.819  15.135  1.00  0.00     0.000 A 
ENDBRANCH  13  17
ENDBRANCH   1  13
TORSDOF 6
ENDMDL
MODEL 11
REMARK VINA RESULT:    -6.861      3.947      6.563
REMARK INTER + INTRA:          -9.985
REMARK INTER:                  -8.859
REMARK INTRA:                  -1.126
REMARK UNBOUND:                -0.918
REMARK SMILES CN1[C@@H]2CC[C@H]1C[C@@H](OC(=O)C(CO)c1ccccc1)C2
REMARK SMILES IDX 10 1 11 2 9 3 8 4 1 5 2 6 6 7 3 8 5 9 7 10 4 11 21 12 12 13
REMARK SMILES IDX 13 14 14 15 15 17 16 18 20 19 17 20 19 21 18 22
REMARK H PARENT 14 16
REMARK Flexibility Score: inf
ROOT
ATOM      1  C   UNL     1      19.342  34.045  14.726  1.00  0.00     0.316 C 
ATOM      2  O   UNL     1      19.840  33.393  15.685  1.00  0.00    -0.251 OA
ENDROOT
BRANCH   1   3
ATOM      3  O   UNL     1      20.083  35.051  14.094  1.00  0.00    -0.462 OA
BRANCH   3   4
ATOM      4  C   UNL     1      21.510  35.089  14.078  1.00  0.00     0.179 C 
ATOM      5  C   UNL     1      25.540  35.811  13.485  1.00  0.00     0.105 C 
ATOM      6  N   UNL     1      24.084  35.628  13.623  1.00  0.00    -0.300 NA
ATOM      7  C   UNL     1      23.390  36.873  13.972  1.00  0.00     0.060 C 
ATOM      8  C   UNL     1      23.438  35.279  12.352  1.00  0.00     0.060 C 
ATOM      9  C   UNL     1      23.246  37.664  12.662  1.00  0.00     0.021 C 
ATOM     10  C   UNL     1      21.992  36.494  14.538  1.00  0.00     0.064 C 
ATOM     11  C   UNL     1      23.274  36.598  11.578  1.00  0.00     0.021 C 
ATOM     12  C   UNL     1      22.051  34.661  12.680  1.00  0.00     0.064 C 
ENDBRANCH   3   4
ENDBRANCH   1   3
BRANCH   1  13
ATOM     13  C   UNL     1      17.951  33.743  14.233  1.00  0.00     0.155 C 
BRANCH  13  14
ATOM     14  C   UNL     1      16.923  34.785  14.712  1.00  0.00     0.176 C 
BRANCH  14  15
ATOM     15  O   UNL     1      17.489  35.719  15.595  1.00  0.00    -0.395 OA
ATOM     16  H   UNL     1      17.963  35.202  16.298  1.00  0.00     0.210 HD
ENDBRANCH  14  15
ENDBRANCH  13  14
BRANCH  13  17
ATOM     17  C   UNL     1      17.912  33.532  12.725  1.00  0.00    -0.032 A 
ATOM     18  C   UNL     1      17.010  34.276  11.941  1.00  0.00     0.005 A 
ATOM     19  C   UNL     1      18.764  32.609  12.084  1.00  0.00     0.005 A 
ATOM     20  C   UNL     1      16.960  34.100  10.554  1.00  0.00     0.000 A 
ATOM     21  C   UNL     1      18.709  32.438  10.697  1.00  0.00     0.000 A 
ATOM     22  C   UNL     1      17.810  33.182   9.933  1.00  0.00     0.000 A 
ENDBRANCH  13  17
ENDBRANCH   1  13
TORSDOF 6
ENDMDL
MODEL 12
REMARK VINA RESULT:    -6.840      3.263      6.492
REMARK INTER + INTRA:          -9.957
REMARK INTER:                  -8.864
REMARK INTRA:                  -1.093
REMARK UNBOUND:                -0.918
REMARK SMILES CN1[C@@H]2CC[C@H]1C[C@@H](OC(=O)C(CO)c1ccccc1)C2
REMARK SMILES IDX 10 1 11 2 9 3 8 4 1 5 2 6 6 7 3 8 5 9 7 10 4 11 21 12 12 13
REMARK SMILES IDX 13 14 14 15 15 17 16 18 20 19 17 20 19 21 18 22
REMARK H PARENT 14 16
REMARK Flexibility Score: inf
ROOT
ATOM      1  C   UNL     1      20.680  34.323  13.954  1.00  0.00     0.316 C 
ATOM      2  O   UNL     1      21.919  34.369  14.190  1.00  0.00    -0.251 OA
ENDROOT
BRANCH   1   3
ATOM      3  O   UNL     1      19.830  35.326  14.436  1.00  0.00    -0.462 OA
BRANCH   3   4
ATOM      4  C   UNL     1      19.546  35.521  15.822  1.00  0.00     0.179 C 
ATOM      5  C   UNL     1      18.018  35.687  19.663  1.00  0.00     0.105 C 
ATOM      6  N   UNL     1      18.472  35.582  18.264  1.00  0.00    -0.300 NA
ATOM      7  C   UNL     1      18.453  34.200  17.769  1.00  0.00     0.060 C 
ATOM      8  C   UNL     1      17.557  36.242  17.324  1.00  0.00     0.060 C 
ATOM      9  C   UNL     1      16.992  33.897  17.400  1.00  0.00     0.021 C 
ATOM     10  C   UNL     1      19.359  34.137  16.506  1.00  0.00     0.064 C 
ATOM     11  C   UNL     1      16.393  35.262  17.099  1.00  0.00     0.021 C 
ATOM     12  C   UNL     1      18.333  36.484  16.000  1.00  0.00     0.064 C 
ENDBRANCH   3   4
ENDBRANCH   1   3
BRANCH   1  13
ATOM     13  C   UNL     1      20.095  33.201  13.137  1.00  0.00     0.155 C 
BRANCH  13  14
ATOM     14  C   UNL     1      20.107  31.860  13.895  1.00  0.00     0.176 C 
BRANCH  14  15
ATOM     15  O   UNL     1      21.347  31.608  14.503  1.00  0.00    -0.395 OA
ATOM     16  H   UNL     1      21.250  31.836  15.464  1.00  0.00     0.210 HD
ENDBRANCH  14  15
ENDBRANCH  13  14
BRANCH  13  17
ATOM     17  C   UNL     1      18.719  33.550  12.587  1.00  0.00    -0.032 A 
ATOM     18  C   UNL     1      18.596  34.012  11.262  1.00  0.00     0.005 A 
ATOM     19  C   UNL     1      17.553  33.419  13.369  1.00  0.00     0.005 A 
ATOM     20  C   UNL     1      17.340  34.335  10.736  1.00  0.00     0.000 A 
ATOM     21  C   UNL     1      16.301  33.743  12.837  1.00  0.00     0.000 A 
ATOM     22  C   UNL     1      16.194  34.200  11.523  1.00  0.00     0.000 A 
ENDBRANCH  13  17
ENDBRANCH   1  13
TORSDOF 6
ENDMDL
MODEL 13
REMARK VINA RESULT:    -6.717      3.829      6.113
REMARK INTER + INTRA:          -9.795
REMARK INTER:                  -9.045
REMARK INTRA:                  -0.750
REMARK UNBOUND:                -0.918
REMARK SMILES CN1[C@@H]2CC[C@H]1C[C@@H](OC(=O)C(CO)c1ccccc1)C2
REMARK SMILES IDX 10 1 11 2 9 3 8 4 1 5 2 6 6 7 3 8 5 9 7 10 4 11 21 12 12 13
REMARK SMILES IDX 13 14 14 15 15 17 16 18 20 19 17 20 19 21 18 22
REMARK H PARENT 14 16
REMARK Flexibility Score: inf
ROOT
ATOM      1  C   UNL     1      19.015  34.309  14.513  1.00  0.00     0.316 C 
ATOM      2  O   UNL     1      19.376  33.225  15.050  1.00  0.00    -0.251 OA
ENDROOT
BRANCH   1   3
ATOM      3  O   UNL     1      19.915  35.377  14.400  1.00  0.00    -0.462 OA
BRANCH   3   4
ATOM      4  C   UNL     1      21.331  35.211  14.326  1.00  0.00     0.179 C 
ATOM      5  C   UNL     1      25.392  35.333  13.547  1.00  0.00     0.105 C 
ATOM      6  N   UNL     1      23.932  35.363  13.749  1.00  0.00    -0.300 NA
ATOM      7  C   UNL     1      23.434  36.706  14.068  1.00  0.00     0.060 C 
ATOM      8  C   UNL     1      23.187  35.059  12.520  1.00  0.00     0.060 C 
ATOM      9  C   UNL     1      23.344  37.458  12.729  1.00  0.00     0.021 C 
ATOM     10  C   UNL     1      22.024  36.551  14.704  1.00  0.00     0.064 C 
ATOM     11  C   UNL     1      23.175  36.357  11.695  1.00  0.00     0.021 C 
ATOM     12  C   UNL     1      21.744  34.656  12.930  1.00  0.00     0.064 C 
ENDBRANCH   3   4
ENDBRANCH   1   3
BRANCH   1  13
ATOM     13  C   UNL     1      17.620  34.469  13.968  1.00  0.00     0.155 C 
BRANCH  13  14
ATOM     14  C   UNL     1      17.211  33.297  13.056  1.00  0.00     0.176 C 
BRANCH  14  15
ATOM     15  O   UNL     1      18.325  32.652  12.494  1.00  0.00    -0.395 OA
ATOM     16  H   UNL     1      18.751  33.299  11.873  1.00  0.00     0.210 HD
ENDBRANCH  14  15
ENDBRANCH  13  14
BRANCH  13  17
ATOM     17  C   UNL     1      16.603  34.736  15.070  1.00  0.00    -0.032 A 
ATOM     18  C   UNL     1      15.264  34.339  14.891  1.00  0.00     0.005 A 
ATOM     19  C   UNL     1      16.966  35.369  16.277  1.00  0.00     0.005 A 
ATOM     20  C   UNL     1      14.314  34.571  15.893  1.00  0.00     0.000 A 
ATOM     21  C   UNL     1      16.012  35.598  17.273  1.00  0.00     0.000 A 
ATOM     22  C   UNL     1      14.689  35.200  17.082  1.00  0.00     0.000 A 
ENDBRANCH  13  17
ENDBRANCH   1  13
TORSDOF 6
ENDMDL
MODEL 14
REMARK VINA RESULT:    -6.636      3.295      5.670
REMARK INTER + INTRA:          -9.688
REMARK INTER:                  -8.798
REMARK INTRA:                  -0.890
REMARK UNBOUND:                -0.918
REMARK SMILES CN1[C@@H]2CC[C@H]1C[C@@H](OC(=O)C(CO)c1ccccc1)C2
REMARK SMILES IDX 10 1 11 2 9 3 8 4 1 5 2 6 6 7 3 8 5 9 7 10 4 11 21 12 12 13
REMARK SMILES IDX 13 14 14 15 15 17 16 18 20 19 17 20 19 21 18 22
REMARK H PARENT 14 16
REMARK Flexibility Score: inf
ROOT
ATOM      1  C   UNL     1      18.327  33.274  13.179  1.00  0.00     0.316 C 
ATOM      2  O   UNL     1      18.375  32.388  14.076  1.00  0.00    -0.251 OA
ENDROOT
BRANCH   1   3
ATOM      3  O   UNL     1      19.397  33.440  12.289  1.00  0.00    -0.462 OA
BRANCH   3   4
ATOM      4  C   UNL     1      20.675  33.942  12.677  1.00  0.00     0.179 C 
ATOM      5  C   UNL     1      24.300  34.876  14.438  1.00  0.00     0.105 C 
ATOM      6  N   UNL     1      22.990  34.479  13.893  1.00  0.00    -0.300 NA
ATOM      7  C   UNL     1      22.874  33.028  13.704  1.00  0.00     0.060 C 
ATOM      8  C   UNL     1      21.888  34.740  14.827  1.00  0.00     0.060 C 
ATOM      9  C   UNL     1      22.564  32.439  15.090  1.00  0.00     0.021 C 
ATOM     10  C   UNL     1      21.695  32.769  12.724  1.00  0.00     0.064 C 
ATOM     11  C   UNL     1      21.901  33.583  15.840  1.00  0.00     0.021 C 
ATOM     12  C   UNL     1      20.566  34.740  14.012  1.00  0.00     0.064 C 
ENDBRANCH   3   4
ENDBRANCH   1   3
BRANCH   1  13
ATOM     13  C   UNL     1      17.116  34.158  13.036  1.00  0.00     0.155 C 
BRANCH  13  14
ATOM     14  C   UNL     1      16.104  33.602  12.016  1.00  0.00     0.176 C 
BRANCH  14  15
ATOM     15  O   UNL     1      16.459  32.321  11.566  1.00  0.00    -0.395 OA
ATOM     16  H   UNL     1      15.855  31.676  12.019  1.00  0.00     0.210 HD
ENDBRANCH  14  15
ENDBRANCH  13  14
BRANCH  13  17
ATOM     17  C   UNL     1      16.477  34.474  14.382  1.00  0.00    -0.032 A 
ATOM     18  C   UNL     1      17.236  35.116  15.379  1.00  0.00     0.005 A 
ATOM     19  C   UNL     1      15.134  34.146  14.660  1.00  0.00     0.005 A 
ATOM     20  C   UNL     1      16.666  35.419  16.621  1.00  0.00     0.000 A 
ATOM     21  C   UNL     1      14.571  34.451  15.903  1.00  0.00     0.000 A 
ATOM     22  C   UNL     1      15.335  35.087  16.882  1.00  0.00     0.000 A 
ENDBRANCH  13  17
ENDBRANCH   1  13
TORSDOF 6
ENDMDL
MODEL 15
REMARK VINA RESULT:    -6.588      3.313      5.968
REMARK INTER + INTRA:          -9.625
REMARK INTER:                  -8.524
REMARK INTRA:                  -1.101
REMARK UNBOUND:                -0.918
REMARK SMILES CN1[C@@H]2CC[C@H]1C[C@@H](OC(=O)C(CO)c1ccccc1)C2
REMARK SMILES IDX 10 1 11 2 9 3 8 4 1 5 2 6 6 7 3 8 5 9 7 10 4 11 21 12 12 13
REMARK SMILES IDX 13 14 14 15 15 17 16 18 20 19 17 20 19 21 18 22
REMARK H PARENT 14 16
REMARK Flexibility Score: inf
ROOT
ATOM      1  C   UNL     1      17.861  32.943  12.871  1.00  0.00     0.316 C 
ATOM      2  O   UNL     1      17.994  32.251  11.824  1.00  0.00    -0.251 OA
ENDROOT
BRANCH   1   3
ATOM      3  O   UNL     1      18.459  32.535  14.070  1.00  0.00    -0.462 OA
BRANCH   3   4
ATOM      4  C   UNL     1      19.770  32.931  14.472  1.00  0.00     0.179 C 
ATOM      5  C   UNL     1      23.188  34.757  15.920  1.00  0.00     0.105 C 
ATOM      6  N   UNL     1      21.917  34.193  15.433  1.00  0.00    -0.300 NA
ATOM      7  C   UNL     1      20.888  34.138  16.478  1.00  0.00     0.060 C 
ATOM      8  C   UNL     1      21.269  35.048  14.430  1.00  0.00     0.060 C 
ATOM      9  C   UNL     1      20.309  35.558  16.584  1.00  0.00     0.021 C 
ATOM     10  C   UNL     1      19.793  33.135  16.014  1.00  0.00     0.064 C 
ATOM     11  C   UNL     1      20.560  36.166  15.213  1.00  0.00     0.021 C 
ATOM     12  C   UNL     1      20.237  34.177  13.662  1.00  0.00     0.064 C 
ENDBRANCH   3   4
ENDBRANCH   1   3
BRANCH   1  13
ATOM     13  C   UNL     1      17.073  34.227  12.848  1.00  0.00     0.155 C 
BRANCH  13  14
ATOM     14  C   UNL     1      16.214  34.362  11.576  1.00  0.00     0.176 C 
BRANCH  14  15
ATOM     15  O   UNL     1      16.979  34.735  10.459  1.00  0.00    -0.395 OA
ATOM     16  H   UNL     1      16.469  35.439   9.980  1.00  0.00     0.210 HD
ENDBRANCH  14  15
ENDBRANCH  13  14
BRANCH  13  17
ATOM     17  C   UNL     1      16.266  34.426  14.123  1.00  0.00    -0.032 A 
ATOM     18  C   UNL     1      16.842  35.107  15.213  1.00  0.00     0.005 A 
ATOM     19  C   UNL     1      14.944  33.949  14.246  1.00  0.00     0.005 A 
ATOM     20  C   UNL     1      16.116  35.304  16.393  1.00  0.00     0.000 A 
ATOM     21  C   UNL     1      14.224  34.149  15.428  1.00  0.00     0.000 A 
ATOM     22  C   UNL     1      14.808  34.825  16.499  1.00  0.00     0.000 A 
ENDBRANCH  13  17
ENDBRANCH   1  13
TORSDOF 6
ENDMDL
