MODEL 1
REMARK VINA RESULT:    -7.515      0.000      0.000
REMARK INTER + INTRA:         -12.896
REMARK INTER:                 -11.468
REMARK INTRA:                  -1.428
REMARK UNBOUND:                -1.428
REMARK SMILES CCC(=O)N(c1ccccc1)C1(COC)CCN(CCc2cccs2)CC1
REMARK SMILES IDX 12 1 16 2 17 3 18 4 26 5 27 6 5 7 3 8 4 9 2 10 1 11 6 12
REMARK SMILES IDX 7 13 11 14 8 15 10 16 9 17 13 18 14 19 15 20 19 21 20 22
REMARK SMILES IDX 21 23 22 24 25 25 23 26 24 27
REMARK H PARENT
REMARK Flexibility Score: inf
ROOT
ATOM      1  C   UNL     1      11.531  10.015  18.135  1.00  0.00     0.073 C 
ATOM      2  C   UNL     1      11.166  11.506  17.812  1.00  0.00     0.047 C 
ATOM      3  C   UNL     1      10.803  12.287  19.081  1.00  0.00     0.087 C 
ATOM      4  N   UNL     1       9.585  11.752  19.746  1.00  0.00    -0.303 NA
ATOM      5  C   UNL     1       9.369  10.301  19.510  1.00  0.00     0.087 C 
ATOM      6  C   UNL     1      10.700   9.548  19.379  1.00  0.00     0.047 C 
ENDROOT
BRANCH   1   7
ATOM      7  N   UNL     1      12.992   9.860  18.417  1.00  0.00    -0.304 N 
BRANCH   7   8
ATOM      8  C   UNL     1      13.991  10.024  17.398  1.00  0.00     0.227 C 
ATOM      9  O   UNL     1      14.410   9.021  16.760  1.00  0.00    -0.275 OA
BRANCH   8  10
ATOM     10  C   UNL     1      14.608  11.369  17.154  1.00  0.00     0.097 C 
ATOM     11  C   UNL     1      15.667  11.680  18.208  1.00  0.00     0.014 C 
ENDBRANCH   8  10
ENDBRANCH   7   8
BRANCH   7  12
ATOM     12  C   UNL     1      13.462   9.254  19.634  1.00  0.00     0.044 A 
ATOM     13  C   UNL     1      13.731   7.876  19.691  1.00  0.00     0.026 A 
ATOM     14  C   UNL     1      13.733  10.057  20.752  1.00  0.00     0.026 A 
ATOM     15  C   UNL     1      14.210   7.304  20.872  1.00  0.00     0.002 A 
ATOM     16  C   UNL     1      14.221   9.482  21.929  1.00  0.00     0.002 A 
ATOM     17  C   UNL     1      14.449   8.105  21.993  1.00  0.00     0.000 A 
ENDBRANCH   7  12
ENDBRANCH   1   7
BRANCH   1  18
ATOM     18  C   UNL     1      11.142   9.135  16.917  1.00  0.00     0.188 C 
BRANCH  18  19
ATOM     19  O   UNL     1      10.642   7.886  17.355  1.00  0.00    -0.382 OA
ATOM     20  C   UNL     1      11.469   6.851  16.872  1.00  0.00     0.195 C 
ENDBRANCH  18  19
ENDBRANCH   1  18
BRANCH   4  21
ATOM     21  C   UNL     1       8.382  12.544  19.404  1.00  0.00     0.090 C 
BRANCH  21  22
ATOM     22  C   UNL     1       8.739  14.012  19.134  1.00  0.00     0.062 C 
BRANCH  22  23
ATOM     23  C   UNL     1       8.187  14.458  17.817  1.00  0.00     0.006 A 
ATOM     24  C   UNL     1       8.308  13.776  16.613  1.00  0.00     0.015 A 
ATOM     25  S   UNL     1       7.208  15.804  17.577  1.00  0.00    -0.149 S 
ATOM     26  C   UNL     1       7.624  14.394  15.559  1.00  0.00     0.012 A 
ATOM     27  C   UNL     1       6.951  15.550  15.934  1.00  0.00     0.065 A 
ENDBRANCH  22  23
ENDBRANCH  21  22
ENDBRANCH   4  21
TORSDOF 9
ENDMDL
MODEL 2
REMARK VINA RESULT:    -7.356      3.469      5.042
REMARK INTER + INTRA:         -12.655
REMARK INTER:                 -11.670
REMARK INTRA:                  -0.985
REMARK UNBOUND:                -1.428
REMARK SMILES CCC(=O)N(c1ccccc1)C1(COC)CCN(CCc2cccs2)CC1
REMARK SMILES IDX 12 1 16 2 17 3 18 4 26 5 27 6 5 7 3 8 4 9 2 10 1 11 6 12
REMARK SMILES IDX 7 13 11 14 8 15 10 16 9 17 13 18 14 19 15 20 19 21 20 22
REMARK SMILES IDX 21 23 22 24 25 25 23 26 24 27
REMARK H PARENT
REMARK Flexibility Score: inf
ROOT
ATOM      1  C   UNL     1      12.716  10.002  17.105  1.00  0.00     0.073 C 
ATOM      2  C   UNL     1      12.100  11.446  17.117  1.00  0.00     0.047 C 
ATOM      3  C   UNL     1      10.792  11.509  16.320  1.00  0.00     0.087 C 
ATOM      4  N   UNL     1      10.993  11.213  14.876  1.00  0.00    -0.303 NA
ATOM      5  C   UNL     1      12.147  10.315  14.610  1.00  0.00     0.087 C 
ATOM      6  C   UNL     1      12.350   9.307  15.749  1.00  0.00     0.047 C 
ENDROOT
BRANCH   1   7
ATOM      7  N   UNL     1      12.206   9.183  18.247  1.00  0.00    -0.304 N 
BRANCH   7   8
ATOM      8  C   UNL     1      10.825   8.801  18.360  1.00  0.00     0.227 C 
ATOM      9  O   UNL     1      10.345   7.937  17.577  1.00  0.00    -0.275 OA
BRANCH   8  10
ATOM     10  C   UNL     1       9.927   9.495  19.341  1.00  0.00     0.097 C 
ATOM     11  C   UNL     1       8.584   9.833  18.703  1.00  0.00     0.014 C 
ENDBRANCH   8  10
ENDBRANCH   7   8
BRANCH   7  12
ATOM     12  C   UNL     1      12.989   8.981  19.436  1.00  0.00     0.044 A 
ATOM     13  C   UNL     1      13.158  10.019  20.367  1.00  0.00     0.026 A 
ATOM     14  C   UNL     1      13.523   7.713  19.712  1.00  0.00     0.026 A 
ATOM     15  C   UNL     1      13.902   9.803  21.531  1.00  0.00     0.002 A 
ATOM     16  C   UNL     1      14.259   7.498  20.881  1.00  0.00     0.002 A 
ATOM     17  C   UNL     1      14.458   8.546  21.785  1.00  0.00     0.000 A 
ENDBRANCH   7  12
ENDBRANCH   1   7
BRANCH   1  18
ATOM     18  C   UNL     1      14.260  10.122  17.203  1.00  0.00     0.188 C 
BRANCH  18  19
ATOM     19  O   UNL     1      14.647  11.483  17.193  1.00  0.00    -0.382 OA
ATOM     20  C   UNL     1      15.643  11.698  18.169  1.00  0.00     0.195 C 
ENDBRANCH  18  19
ENDBRANCH   1  18
BRANCH   4  21
ATOM     21  C   UNL     1      11.069  12.452  14.070  1.00  0.00     0.090 C 
BRANCH  21  22
ATOM     22  C   UNL     1      12.491  12.687  13.543  1.00  0.00     0.062 C 
BRANCH  22  23
ATOM     23  C   UNL     1      12.458  13.202  12.138  1.00  0.00     0.006 A 
ATOM     24  C   UNL     1      13.567  13.475  11.348  1.00  0.00     0.015 A 
ATOM     25  S   UNL     1      11.070  13.422  11.215  1.00  0.00    -0.149 S 
ATOM     26  C   UNL     1      13.231  13.872  10.047  1.00  0.00     0.012 A 
ATOM     27  C   UNL     1      11.863  13.895   9.808  1.00  0.00     0.065 A 
ENDBRANCH  22  23
ENDBRANCH  21  22
ENDBRANCH   4  21
TORSDOF 9
ENDMDL
MODEL 3
REMARK VINA RESULT:    -7.129      3.660      5.334
REMARK INTER + INTRA:         -12.309
REMARK INTER:                 -11.108
REMARK INTRA:                  -1.200
REMARK UNBOUND:                -1.428
REMARK SMILES CCC(=O)N(c1ccccc1)C1(COC)CCN(CCc2cccs2)CC1
REMARK SMILES IDX 12 1 16 2 17 3 18 4 26 5 27 6 5 7 3 8 4 9 2 10 1 11 6 12
REMARK SMILES IDX 7 13 11 14 8 15 10 16 9 17 13 18 14 19 15 20 19 21 20 22
REMARK SMILES IDX 21 23 22 24 25 25 23 26 24 27
REMARK H PARENT
REMARK Flexibility Score: inf
ROOT
ATOM      1  C   UNL     1      11.417  11.377  18.074  1.00  0.00     0.073 C 
ATOM      2  C   UNL     1      10.689  11.546  16.694  1.00  0.00     0.047 C 
ATOM      3  C   UNL     1      11.570  11.080  15.528  1.00  0.00     0.087 C 
ATOM      4  N   UNL     1      12.804  11.899  15.389  1.00  0.00    -0.303 NA
ATOM      5  C   UNL     1      13.273  12.488  16.671  1.00  0.00     0.087 C 
ATOM      6  C   UNL     1      12.958  11.571  17.860  1.00  0.00     0.047 C 
ENDROOT
BRANCH   1   7
ATOM      7  N   UNL     1      11.156  10.029  18.666  1.00  0.00    -0.304 N 
BRANCH   7   8
ATOM      8  C   UNL     1       9.852   9.426  18.655  1.00  0.00     0.227 C 
ATOM      9  O   UNL     1       9.501   8.706  17.682  1.00  0.00    -0.275 OA
BRANCH   8  10
ATOM     10  C   UNL     1       8.871   9.727  19.748  1.00  0.00     0.097 C 
ATOM     11  C   UNL     1       7.659  10.476  19.201  1.00  0.00     0.014 C 
ENDBRANCH   8  10
ENDBRANCH   7   8
BRANCH   7  12
ATOM     12  C   UNL     1      12.110   9.392  19.534  1.00  0.00     0.044 A 
ATOM     13  C   UNL     1      12.302   9.852  20.848  1.00  0.00     0.026 A 
ATOM     14  C   UNL     1      12.798   8.251  19.096  1.00  0.00     0.026 A 
ATOM     15  C   UNL     1      13.215   9.210  21.690  1.00  0.00     0.002 A 
ATOM     16  C   UNL     1      13.703   7.606  19.943  1.00  0.00     0.002 A 
ATOM     17  C   UNL     1      13.920   8.092  21.236  1.00  0.00     0.000 A 
ENDBRANCH   7  12
ENDBRANCH   1   7
BRANCH   1  18
ATOM     18  C   UNL     1      10.906  12.477  19.041  1.00  0.00     0.188 C 
BRANCH  18  19
ATOM     19  O   UNL     1      10.190  13.465  18.325  1.00  0.00    -0.382 OA
ATOM     20  C   UNL     1       9.067  13.872  19.075  1.00  0.00     0.195 C 
ENDBRANCH  18  19
ENDBRANCH   1  18
BRANCH   4  21
ATOM     21  C   UNL     1      12.661  12.929  14.336  1.00  0.00     0.090 C 
BRANCH  21  22
ATOM     22  C   UNL     1      11.723  12.457  13.217  1.00  0.00     0.062 C 
BRANCH  22  23
ATOM     23  C   UNL     1      12.051  13.141  11.927  1.00  0.00     0.006 A 
ATOM     24  C   UNL     1      13.316  13.252  11.366  1.00  0.00     0.015 A 
ATOM     25  S   UNL     1      10.927  13.788  10.856  1.00  0.00    -0.149 S 
ATOM     26  C   UNL     1      13.309  13.878  10.113  1.00  0.00     0.012 A 
ATOM     27  C   UNL     1      12.041  14.243   9.680  1.00  0.00     0.065 A 
ENDBRANCH  22  23
ENDBRANCH  21  22
ENDBRANCH   4  21
TORSDOF 9
ENDMDL
MODEL 4
REMARK VINA RESULT:    -7.116      3.375      4.830
REMARK INTER + INTRA:         -12.289
REMARK INTER:                 -11.416
REMARK INTRA:                  -0.873
REMARK UNBOUND:                -1.428
REMARK SMILES CCC(=O)N(c1ccccc1)C1(COC)CCN(CCc2cccs2)CC1
REMARK SMILES IDX 12 1 16 2 17 3 18 4 26 5 27 6 5 7 3 8 4 9 2 10 1 11 6 12
REMARK SMILES IDX 7 13 11 14 8 15 10 16 9 17 13 18 14 19 15 20 19 21 20 22
REMARK SMILES IDX 21 23 22 24 25 25 23 26 24 27
REMARK H PARENT
REMARK Flexibility Score: inf
ROOT
ATOM      1  C   UNL     1      11.822  10.199  18.181  1.00  0.00     0.073 C 
ATOM      2  C   UNL     1      12.015   9.547  16.767  1.00  0.00     0.047 C 
ATOM      3  C   UNL     1      12.692  10.512  15.786  1.00  0.00     0.087 C 
ATOM      4  N   UNL     1      11.865  11.719  15.518  1.00  0.00    -0.303 NA
ATOM      5  C   UNL     1      10.971  12.088  16.646  1.00  0.00     0.087 C 
ATOM      6  C   UNL     1      11.603  11.741  18.001  1.00  0.00     0.047 C 
ENDROOT
BRANCH   1   7
ATOM      7  N   UNL     1      13.007   9.957  19.060  1.00  0.00    -0.304 N 
BRANCH   7   8
ATOM      8  C   UNL     1      13.027   8.916  20.050  1.00  0.00     0.227 C 
ATOM      9  O   UNL     1      12.377   9.055  21.121  1.00  0.00    -0.275 OA
BRANCH   8  10
ATOM     10  C   UNL     1      13.895   7.709  19.860  1.00  0.00     0.097 C 
ATOM     11  C   UNL     1      14.506   7.263  21.185  1.00  0.00     0.014 C 
ENDBRANCH   8  10
ENDBRANCH   7   8
BRANCH   7  12
ATOM     12  C   UNL     1      14.068  10.921  19.173  1.00  0.00     0.044 A 
ATOM     13  C   UNL     1      14.185  11.726  20.320  1.00  0.00     0.026 A 
ATOM     14  C   UNL     1      15.044  11.007  18.168  1.00  0.00     0.026 A 
ATOM     15  C   UNL     1      15.234  12.643  20.429  1.00  0.00     0.002 A 
ATOM     16  C   UNL     1      16.096  11.919  18.285  1.00  0.00     0.002 A 
ATOM     17  C   UNL     1      16.186  12.744  19.409  1.00  0.00     0.000 A 
ENDBRANCH   7  12
ENDBRANCH   1   7
BRANCH   1  18
ATOM     18  C   UNL     1      10.556   9.589  18.838  1.00  0.00     0.188 C 
BRANCH  18  19
ATOM     19  O   UNL     1       9.637   9.178  17.844  1.00  0.00    -0.382 OA
ATOM     20  C   UNL     1       8.404   9.835  18.039  1.00  0.00     0.195 C 
ENDBRANCH  18  19
ENDBRANCH   1  18
BRANCH   4  21
ATOM     21  C   UNL     1      11.116  11.597  14.247  1.00  0.00     0.090 C 
BRANCH  21  22
ATOM     22  C   UNL     1      10.780  12.977  13.664  1.00  0.00     0.062 C 
BRANCH  22  23
ATOM     23  C   UNL     1      11.605  13.253  12.446  1.00  0.00     0.006 A 
ATOM     24  C   UNL     1      12.993  13.226  12.384  1.00  0.00     0.015 A 
ATOM     25  S   UNL     1      11.000  13.520  10.901  1.00  0.00    -0.149 S 
ATOM     26  C   UNL     1      13.489  13.449  11.093  1.00  0.00     0.012 A 
ATOM     27  C   UNL     1      12.497  13.634  10.139  1.00  0.00     0.065 A 
ENDBRANCH  22  23
ENDBRANCH  21  22
ENDBRANCH   4  21
TORSDOF 9
ENDMDL
MODEL 5
REMARK VINA RESULT:    -7.005      3.226      4.644
REMARK INTER + INTRA:         -12.118
REMARK INTER:                 -10.809
REMARK INTRA:                  -1.309
REMARK UNBOUND:                -1.428
REMARK SMILES CCC(=O)N(c1ccccc1)C1(COC)CCN(CCc2cccs2)CC1
REMARK SMILES IDX 12 1 16 2 17 3 18 4 26 5 27 6 5 7 3 8 4 9 2 10 1 11 6 12
REMARK SMILES IDX 7 13 11 14 8 15 10 16 9 17 13 18 14 19 15 20 19 21 20 22
REMARK SMILES IDX 21 23 22 24 25 25 23 26 24 27
REMARK H PARENT
REMARK Flexibility Score: inf
ROOT
ATOM      1  C   UNL     1      11.271  10.642  17.897  1.00  0.00     0.073 C 
ATOM      2  C   UNL     1      11.141  10.443  16.345  1.00  0.00     0.047 C 
ATOM      3  C   UNL     1      11.790  11.597  15.571  1.00  0.00     0.087 C 
ATOM      4  N   UNL     1      11.118  12.899  15.827  1.00  0.00    -0.303 NA
ATOM      5  C   UNL     1      10.479  12.984  17.166  1.00  0.00     0.087 C 
ATOM      6  C   UNL     1      11.258  12.177  18.214  1.00  0.00     0.047 C 
ENDROOT
BRANCH   1   7
ATOM      7  N   UNL     1      12.531  10.030  18.420  1.00  0.00    -0.304 N 
BRANCH   7   8
ATOM      8  C   UNL     1      12.574   8.694  18.948  1.00  0.00     0.227 C 
ATOM      9  O   UNL     1      12.431   8.503  20.186  1.00  0.00    -0.275 OA
BRANCH   8  10
ATOM     10  C   UNL     1      12.883   7.535  18.048  1.00  0.00     0.097 C 
ATOM     11  C   UNL     1      11.600   6.871  17.557  1.00  0.00     0.014 C 
ENDBRANCH   8  10
ENDBRANCH   7   8
BRANCH   7  12
ATOM     12  C   UNL     1      13.695  10.828  18.700  1.00  0.00     0.044 A 
ATOM     13  C   UNL     1      13.924  11.333  19.991  1.00  0.00     0.026 A 
ATOM     14  C   UNL     1      14.653  11.039  17.697  1.00  0.00     0.026 A 
ATOM     15  C   UNL     1      15.070  12.088  20.256  1.00  0.00     0.002 A 
ATOM     16  C   UNL     1      15.803  11.786  17.968  1.00  0.00     0.002 A 
ATOM     17  C   UNL     1      16.006  12.320  19.243  1.00  0.00     0.000 A 
ENDBRANCH   7  12
ENDBRANCH   1   7
BRANCH   1  18
ATOM     18  C   UNL     1      10.049   9.980  18.585  1.00  0.00     0.188 C 
BRANCH  18  19
ATOM     19  O   UNL     1       9.107   9.563  17.615  1.00  0.00    -0.382 OA
ATOM     20  C   UNL     1       7.835  10.081  17.938  1.00  0.00     0.195 C 
ENDBRANCH  18  19
ENDBRANCH   1  18
BRANCH   4  21
ATOM     21  C   UNL     1      10.169  13.247  14.747  1.00  0.00     0.090 C 
BRANCH  21  22
ATOM     22  C   UNL     1      10.665  14.451  13.934  1.00  0.00     0.062 C 
BRANCH  22  23
ATOM     23  C   UNL     1      11.624  14.014  12.872  1.00  0.00     0.006 A 
ATOM     24  C   UNL     1      13.006  14.148  12.922  1.00  0.00     0.015 A 
ATOM     25  S   UNL     1      11.215  13.165  11.480  1.00  0.00    -0.149 S 
ATOM     26  C   UNL     1      13.654  13.579  11.819  1.00  0.00     0.012 A 
ATOM     27  C   UNL     1      12.788  12.983  10.910  1.00  0.00     0.065 A 
ENDBRANCH  22  23
ENDBRANCH  21  22
ENDBRANCH   4  21
TORSDOF 9
ENDMDL
MODEL 6
REMARK VINA RESULT:    -6.920      3.944      5.502
REMARK INTER + INTRA:         -11.989
REMARK INTER:                 -10.842
REMARK INTRA:                  -1.148
REMARK UNBOUND:                -1.428
REMARK SMILES CCC(=O)N(c1ccccc1)C1(COC)CCN(CCc2cccs2)CC1
REMARK SMILES IDX 12 1 16 2 17 3 18 4 26 5 27 6 5 7 3 8 4 9 2 10 1 11 6 12
REMARK SMILES IDX 7 13 11 14 8 15 10 16 9 17 13 18 14 19 15 20 19 21 20 22
REMARK SMILES IDX 21 23 22 24 25 25 23 26 24 27
REMARK H PARENT
REMARK Flexibility Score: inf
ROOT
ATOM      1  C   UNL     1      12.299  10.692  16.413  1.00  0.00     0.073 C 
ATOM      2  C   UNL     1      13.402  11.786  16.186  1.00  0.00     0.047 C 
ATOM      3  C   UNL     1      12.785  13.157  15.885  1.00  0.00     0.087 C 
ATOM      4  N   UNL     1      12.005  13.161  14.619  1.00  0.00    -0.303 NA
ATOM      5  C   UNL     1      11.424  11.837  14.275  1.00  0.00     0.087 C 
ATOM      6  C   UNL     1      11.050  11.042  15.534  1.00  0.00     0.047 C 
ENDROOT
BRANCH   1   7
ATOM      7  N   UNL     1      11.898  10.613  17.851  1.00  0.00    -0.304 N 
BRANCH   7   8
ATOM      8  C   UNL     1      12.769  10.081  18.863  1.00  0.00     0.227 C 
ATOM      9  O   UNL     1      13.880  10.633  19.089  1.00  0.00    -0.275 OA
BRANCH   8  10
ATOM     10  C   UNL     1      12.407   8.817  19.583  1.00  0.00     0.097 C 
ATOM     11  C   UNL     1      13.553   7.811  19.525  1.00  0.00     0.014 C 
ENDBRANCH   8  10
ENDBRANCH   7   8
BRANCH   7  12
ATOM     12  C   UNL     1      10.530  10.784  18.260  1.00  0.00     0.044 A 
ATOM     13  C   UNL     1       9.585   9.766  18.045  1.00  0.00     0.026 A 
ATOM     14  C   UNL     1      10.148  11.943  18.953  1.00  0.00     0.026 A 
ATOM     15  C   UNL     1       8.264   9.934  18.468  1.00  0.00     0.002 A 
ATOM     16  C   UNL     1       8.828  12.104  19.383  1.00  0.00     0.002 A 
ATOM     17  C   UNL     1       7.884  11.105  19.131  1.00  0.00     0.000 A 
ENDBRANCH   7  12
ENDBRANCH   1   7
BRANCH   1  18
ATOM     18  C   UNL     1      12.862   9.320  15.956  1.00  0.00     0.188 C 
BRANCH  18  19
ATOM     19  O   UNL     1      11.811   8.483  15.513  1.00  0.00    -0.382 OA
ATOM     20  C   UNL     1      11.727   7.349  16.348  1.00  0.00     0.195 C 
ENDBRANCH  18  19
ENDBRANCH   1  18
BRANCH   4  21
ATOM     21  C   UNL     1      12.788  13.720  13.495  1.00  0.00     0.090 C 
BRANCH  21  22
ATOM     22  C   UNL     1      12.804  12.763  12.295  1.00  0.00     0.062 C 
BRANCH  22  23
ATOM     23  C   UNL     1      12.244  13.430  11.078  1.00  0.00     0.006 A 
ATOM     24  C   UNL     1      10.905  13.457  10.712  1.00  0.00     0.015 A 
ATOM     25  S   UNL     1      13.119  14.376   9.998  1.00  0.00    -0.149 S 
ATOM     26  C   UNL     1      10.665  14.222   9.563  1.00  0.00     0.012 A 
ATOM     27  C   UNL     1      11.808  14.809   9.036  1.00  0.00     0.065 A 
ENDBRANCH  22  23
ENDBRANCH  21  22
ENDBRANCH   4  21
TORSDOF 9
ENDMDL
MODEL 7
REMARK VINA RESULT:    -6.897      3.823      7.335
REMARK INTER + INTRA:         -11.954
REMARK INTER:                 -10.354
REMARK INTRA:                  -1.600
REMARK UNBOUND:                -1.428
REMARK SMILES CCC(=O)N(c1ccccc1)C1(COC)CCN(CCc2cccs2)CC1
REMARK SMILES IDX 12 1 16 2 17 3 18 4 26 5 27 6 5 7 3 8 4 9 2 10 1 11 6 12
REMARK SMILES IDX 7 13 11 14 8 15 10 16 9 17 13 18 14 19 15 20 19 21 20 22
REMARK SMILES IDX 21 23 22 24 25 25 23 26 24 27
REMARK H PARENT
REMARK Flexibility Score: inf
ROOT
ATOM      1  C   UNL     1      11.716  11.742  15.726  1.00  0.00     0.073 C 
ATOM      2  C   UNL     1      12.738  11.459  16.884  1.00  0.00     0.047 C 
ATOM      3  C   UNL     1      13.916  10.604  16.401  1.00  0.00     0.087 C 
ATOM      4  N   UNL     1      13.489   9.251  15.956  1.00  0.00    -0.303 NA
ATOM      5  C   UNL     1      12.097   9.209  15.437  1.00  0.00     0.087 C 
ATOM      6  C   UNL     1      11.715  10.523  14.742  1.00  0.00     0.047 C 
ENDROOT
BRANCH   1   7
ATOM      7  N   UNL     1      12.068  12.991  14.983  1.00  0.00    -0.304 N 
BRANCH   7   8
ATOM      8  C   UNL     1      12.375  14.224  15.655  1.00  0.00     0.227 C 
ATOM      9  O   UNL     1      11.468  14.846  16.271  1.00  0.00    -0.275 OA
BRANCH   8  10
ATOM     10  C   UNL     1      13.745  14.823  15.547  1.00  0.00     0.097 C 
ATOM     11  C   UNL     1      14.508  14.677  16.860  1.00  0.00     0.014 C 
ENDBRANCH   8  10
ENDBRANCH   7   8
BRANCH   7  12
ATOM     12  C   UNL     1      11.835  13.115  13.569  1.00  0.00     0.044 A 
ATOM     13  C   UNL     1      10.578  13.512  13.082  1.00  0.00     0.026 A 
ATOM     14  C   UNL     1      12.892  12.916  12.668  1.00  0.00     0.026 A 
ATOM     15  C   UNL     1      10.370  13.652  11.707  1.00  0.00     0.002 A 
ATOM     16  C   UNL     1      12.683  13.066  11.294  1.00  0.00     0.002 A 
ATOM     17  C   UNL     1      11.420  13.422  10.813  1.00  0.00     0.000 A 
ENDBRANCH   7  12
ENDBRANCH   1   7
BRANCH   1  18
ATOM     18  C   UNL     1      10.299  11.888  16.342  1.00  0.00     0.188 C 
BRANCH  18  19
ATOM     19  O   UNL     1      10.286  11.387  17.665  1.00  0.00    -0.382 OA
ATOM     20  C   UNL     1       9.256  10.432  17.798  1.00  0.00     0.195 C 
ENDBRANCH  18  19
ENDBRANCH   1  18
BRANCH   4  21
ATOM     21  C   UNL     1      13.709   8.234  17.007  1.00  0.00     0.090 C 
BRANCH  21  22
ATOM     22  C   UNL     1      12.472   8.080  17.903  1.00  0.00     0.062 C 
BRANCH  22  23
ATOM     23  C   UNL     1      12.817   8.345  19.335  1.00  0.00     0.006 A 
ATOM     24  C   UNL     1      13.736   7.630  20.093  1.00  0.00     0.015 A 
ATOM     25  S   UNL     1      12.251   9.636  20.250  1.00  0.00    -0.149 S 
ATOM     26  C   UNL     1      13.911   8.152  21.380  1.00  0.00     0.012 A 
ATOM     27  C   UNL     1      13.146   9.284  21.631  1.00  0.00     0.065 A 
ENDBRANCH  22  23
ENDBRANCH  21  22
ENDBRANCH   4  21
TORSDOF 9
ENDMDL
MODEL 8
REMARK VINA RESULT:    -6.872      3.479      4.776
REMARK INTER + INTRA:         -11.915
REMARK INTER:                 -10.797
REMARK INTRA:                  -1.118
REMARK UNBOUND:                -1.428
REMARK SMILES CCC(=O)N(c1ccccc1)C1(COC)CCN(CCc2cccs2)CC1
REMARK SMILES IDX 12 1 16 2 17 3 18 4 26 5 27 6 5 7 3 8 4 9 2 10 1 11 6 12
REMARK SMILES IDX 7 13 11 14 8 15 10 16 9 17 13 18 14 19 15 20 19 21 20 22
REMARK SMILES IDX 21 23 22 24 25 25 23 26 24 27
REMARK H PARENT
REMARK Flexibility Score: inf
ROOT
ATOM      1  C   UNL     1      11.782  10.426  17.557  1.00  0.00     0.073 C 
ATOM      2  C   UNL     1      12.852  11.557  17.357  1.00  0.00     0.047 C 
ATOM      3  C   UNL     1      12.195  12.931  17.173  1.00  0.00     0.087 C 
ATOM      4  N   UNL     1      11.361  13.000  15.944  1.00  0.00    -0.303 NA
ATOM      5  C   UNL     1      10.793  11.688  15.538  1.00  0.00     0.087 C 
ATOM      6  C   UNL     1      10.489  10.805  16.756  1.00  0.00     0.047 C 
ENDROOT
BRANCH   1   7
ATOM      7  N   UNL     1      11.445  10.245  19.003  1.00  0.00    -0.304 N 
BRANCH   7   8
ATOM      8  C   UNL     1      10.238  10.769  19.580  1.00  0.00     0.227 C 
ATOM      9  O   UNL     1      10.134  12.005  19.805  1.00  0.00    -0.275 OA
BRANCH   8  10
ATOM     10  C   UNL     1       9.140   9.842  20.007  1.00  0.00     0.097 C 
ATOM     11  C   UNL     1       7.795  10.299  19.452  1.00  0.00     0.014 C 
ENDBRANCH   8  10
ENDBRANCH   7   8
BRANCH   7  12
ATOM     12  C   UNL     1      12.428   9.802  19.954  1.00  0.00     0.044 A 
ATOM     13  C   UNL     1      13.008  10.707  20.859  1.00  0.00     0.026 A 
ATOM     14  C   UNL     1      12.756   8.440  20.035  1.00  0.00     0.026 A 
ATOM     15  C   UNL     1      13.945  10.260  21.795  1.00  0.00     0.002 A 
ATOM     16  C   UNL     1      13.687   7.995  20.978  1.00  0.00     0.002 A 
ATOM     17  C   UNL     1      14.290   8.906  21.850  1.00  0.00     0.000 A 
ENDBRANCH   7  12
ENDBRANCH   1   7
BRANCH   1  18
ATOM     18  C   UNL     1      12.352   9.100  16.987  1.00  0.00     0.188 C 
BRANCH  18  19
ATOM     19  O   UNL     1      11.303   8.287  16.497  1.00  0.00    -0.382 OA
ATOM     20  C   UNL     1      11.439   6.980  17.011  1.00  0.00     0.195 C 
ENDBRANCH  18  19
ENDBRANCH   1  18
BRANCH   4  21
ATOM     21  C   UNL     1      12.085  13.649  14.828  1.00  0.00     0.090 C 
BRANCH  21  22
ATOM     22  C   UNL     1      12.668  12.609  13.862  1.00  0.00     0.062 C 
BRANCH  22  23
ATOM     23  C   UNL     1      12.551  13.077  12.445  1.00  0.00     0.006 A 
ATOM     24  C   UNL     1      13.612  13.336  11.586  1.00  0.00     0.015 A 
ATOM     25  S   UNL     1      11.112  13.250  11.593  1.00  0.00    -0.149 S 
ATOM     26  C   UNL     1      13.200  13.686  10.294  1.00  0.00     0.012 A 
ATOM     27  C   UNL     1      11.820  13.685  10.130  1.00  0.00     0.065 A 
ENDBRANCH  22  23
ENDBRANCH  21  22
ENDBRANCH   4  21
TORSDOF 9
ENDMDL
MODEL 9
REMARK VINA RESULT:    -6.864      3.355      7.329
REMARK INTER + INTRA:         -11.903
REMARK INTER:                 -10.959
REMARK INTRA:                  -0.944
REMARK UNBOUND:                -1.428
REMARK SMILES CCC(=O)N(c1ccccc1)C1(COC)CCN(CCc2cccs2)CC1
REMARK SMILES IDX 12 1 16 2 17 3 18 4 26 5 27 6 5 7 3 8 4 9 2 10 1 11 6 12
REMARK SMILES IDX 7 13 11 14 8 15 10 16 9 17 13 18 14 19 15 20 19 21 20 22
REMARK SMILES IDX 21 23 22 24 25 25 23 26 24 27
REMARK H PARENT
REMARK Flexibility Score: inf
ROOT
ATOM      1  C   UNL     1      11.913  10.654  18.501  1.00  0.00     0.073 C 
ATOM      2  C   UNL     1      12.643  12.039  18.615  1.00  0.00     0.047 C 
ATOM      3  C   UNL     1      13.722  12.200  17.538  1.00  0.00     0.087 C 
ATOM      4  N   UNL     1      14.816  11.202  17.678  1.00  0.00    -0.303 NA
ATOM      5  C   UNL     1      14.379   9.928  18.308  1.00  0.00     0.087 C 
ATOM      6  C   UNL     1      12.926   9.593  17.949  1.00  0.00     0.047 C 
ENDROOT
BRANCH   1   7
ATOM      7  N   UNL     1      10.726  10.737  17.596  1.00  0.00    -0.304 N 
BRANCH   7   8
ATOM      8  C   UNL     1       9.591   9.868  17.739  1.00  0.00     0.227 C 
ATOM      9  O   UNL     1       9.728   8.624  17.588  1.00  0.00    -0.275 OA
BRANCH   8  10
ATOM     10  C   UNL     1       8.224  10.441  17.971  1.00  0.00     0.097 C 
ATOM     11  C   UNL     1       7.836  10.341  19.443  1.00  0.00     0.014 C 
ENDBRANCH   8  10
ENDBRANCH   7   8
BRANCH   7  12
ATOM     12  C   UNL     1      10.770  11.476  16.363  1.00  0.00     0.044 A 
ATOM     13  C   UNL     1      11.313  10.900  15.202  1.00  0.00     0.026 A 
ATOM     14  C   UNL     1      10.195  12.754  16.295  1.00  0.00     0.026 A 
ATOM     15  C   UNL     1      11.330  11.620  14.004  1.00  0.00     0.002 A 
ATOM     16  C   UNL     1      10.205  13.468  15.093  1.00  0.00     0.002 A 
ATOM     17  C   UNL     1      10.782  12.906  13.951  1.00  0.00     0.000 A 
ENDBRANCH   7  12
ENDBRANCH   1   7
BRANCH   1  18
ATOM     18  C   UNL     1      11.456  10.218  19.918  1.00  0.00     0.188 C 
BRANCH  18  19
ATOM     19  O   UNL     1      12.078  11.020  20.903  1.00  0.00    -0.382 OA
ATOM     20  C   UNL     1      12.606  10.197  21.919  1.00  0.00     0.195 C 
ENDBRANCH  18  19
ENDBRANCH   1  18
BRANCH   4  21
ATOM     21  C   UNL     1      15.994  11.775  18.367  1.00  0.00     0.090 C 
BRANCH  21  22
ATOM     22  C   UNL     1      16.272  13.209  17.898  1.00  0.00     0.062 C 
BRANCH  22  23
ATOM     23  C   UNL     1      17.726  13.538  18.032  1.00  0.00     0.006 A 
ATOM     24  C   UNL     1      18.705  12.696  18.545  1.00  0.00     0.015 A 
ATOM     25  S   UNL     1      18.462  14.940  17.466  1.00  0.00    -0.149 S 
ATOM     26  C   UNL     1      19.992  13.243  18.475  1.00  0.00     0.012 A 
ATOM     27  C   UNL     1      20.031  14.504  17.893  1.00  0.00     0.065 A 
ENDBRANCH  22  23
ENDBRANCH  21  22
ENDBRANCH   4  21
TORSDOF 9
ENDMDL
MODEL 10
REMARK VINA RESULT:    -6.804      3.034      6.732
REMARK INTER + INTRA:         -11.812
REMARK INTER:                 -11.256
REMARK INTRA:                  -0.555
REMARK UNBOUND:                -1.428
REMARK SMILES CCC(=O)N(c1ccccc1)C1(COC)CCN(CCc2cccs2)CC1
REMARK SMILES IDX 12 1 16 2 17 3 18 4 26 5 27 6 5 7 3 8 4 9 2 10 1 11 6 12
REMARK SMILES IDX 7 13 11 14 8 15 10 16 9 17 13 18 14 19 15 20 19 21 20 22
REMARK SMILES IDX 21 23 22 24 25 25 23 26 24 27
REMARK H PARENT
REMARK Flexibility Score: inf
ROOT
ATOM      1  C   UNL     1      12.756   9.766  18.658  1.00  0.00     0.073 C 
ATOM      2  C   UNL     1      12.695  11.321  18.865  1.00  0.00     0.047 C 
ATOM      3  C   UNL     1      13.223  12.075  17.638  1.00  0.00     0.087 C 
ATOM      4  N   UNL     1      14.661  11.800  17.380  1.00  0.00    -0.303 NA
ATOM      5  C   UNL     1      15.103  10.461  17.851  1.00  0.00     0.087 C 
ATOM      6  C   UNL     1      13.977   9.425  17.738  1.00  0.00     0.047 C 
ENDROOT
BRANCH   1   7
ATOM      7  N   UNL     1      11.496   9.250  18.038  1.00  0.00    -0.304 N 
BRANCH   7   8
ATOM      8  C   UNL     1      11.504   8.418  16.867  1.00  0.00     0.227 C 
ATOM      9  O   UNL     1      10.890   7.316  16.875  1.00  0.00    -0.275 OA
BRANCH   8  10
ATOM     10  C   UNL     1      12.317   8.806  15.669  1.00  0.00     0.097 C 
ATOM     11  C   UNL     1      11.695  10.002  14.954  1.00  0.00     0.014 C 
ENDBRANCH   8  10
ENDBRANCH   7   8
BRANCH   7  12
ATOM     12  C   UNL     1      10.210   9.787  18.391  1.00  0.00     0.044 A 
ATOM     13  C   UNL     1       9.614   9.470  19.624  1.00  0.00     0.026 A 
ATOM     14  C   UNL     1       9.577  10.701  17.534  1.00  0.00     0.026 A 
ATOM     15  C   UNL     1       8.374  10.017  19.965  1.00  0.00     0.002 A 
ATOM     16  C   UNL     1       8.342  11.254  17.883  1.00  0.00     0.002 A 
ATOM     17  C   UNL     1       7.735  10.904  19.093  1.00  0.00     0.000 A 
ENDBRANCH   7  12
ENDBRANCH   1   7
BRANCH   1  18
ATOM     18  C   UNL     1      12.968   9.092  20.040  1.00  0.00     0.188 C 
BRANCH  18  19
ATOM     19  O   UNL     1      13.406   7.757  19.871  1.00  0.00    -0.382 OA
ATOM     20  C   UNL     1      14.267   7.405  20.931  1.00  0.00     0.195 C 
ENDBRANCH  18  19
ENDBRANCH   1  18
BRANCH   4  21
ATOM     21  C   UNL     1      15.528  12.877  17.908  1.00  0.00     0.090 C 
BRANCH  21  22
ATOM     22  C   UNL     1      16.746  12.302  18.644  1.00  0.00     0.062 C 
BRANCH  22  23
ATOM     23  C   UNL     1      17.962  13.137  18.391  1.00  0.00     0.006 A 
ATOM     24  C   UNL     1      19.278  12.720  18.538  1.00  0.00     0.015 A 
ATOM     25  S   UNL     1      17.957  14.695  17.758  1.00  0.00    -0.149 S 
ATOM     26  C   UNL     1      20.210  13.693  18.155  1.00  0.00     0.012 A 
ATOM     27  C   UNL     1      19.630  14.867  17.691  1.00  0.00     0.065 A 
ENDBRANCH  22  23
ENDBRANCH  21  22
ENDBRANCH   4  21
TORSDOF 9
ENDMDL
MODEL 11
REMARK VINA RESULT:    -6.769      1.642      2.040
REMARK INTER + INTRA:         -11.758
REMARK INTER:                 -10.589
REMARK INTRA:                  -1.169
REMARK UNBOUND:                -1.428
REMARK SMILES CCC(=O)N(c1ccccc1)C1(COC)CCN(CCc2cccs2)CC1
REMARK SMILES IDX 12 1 16 2 17 3 18 4 26 5 27 6 5 7 3 8 4 9 2 10 1 11 6 12
REMARK SMILES IDX 7 13 11 14 8 15 10 16 9 17 13 18 14 19 15 20 19 21 20 22
REMARK SMILES IDX 21 23 22 24 25 25 23 26 24 27
REMARK H PARENT
REMARK Flexibility Score: inf
ROOT
ATOM      1  C   UNL     1      11.463  10.169  18.179  1.00  0.00     0.073 C 
ATOM      2  C   UNL     1      11.183  10.660  16.715  1.00  0.00     0.047 C 
ATOM      3  C   UNL     1      11.160  12.191  16.627  1.00  0.00     0.087 C 
ATOM      4  N   UNL     1      10.056  12.787  17.427  1.00  0.00    -0.303 NA
ATOM      5  C   UNL     1       9.661  11.963  18.599  1.00  0.00     0.087 C 
ATOM      6  C   UNL     1      10.861  11.207  19.186  1.00  0.00     0.047 C 
ENDROOT
BRANCH   1   7
ATOM      7  N   UNL     1      12.930  10.014  18.430  1.00  0.00    -0.304 N 
BRANCH   7   8
ATOM      8  C   UNL     1      13.909  10.193  17.394  1.00  0.00     0.227 C 
ATOM      9  O   UNL     1      13.888   9.452  16.375  1.00  0.00    -0.275 OA
BRANCH   8  10
ATOM     10  C   UNL     1      15.014  11.192  17.563  1.00  0.00     0.097 C 
ATOM     11  C   UNL     1      14.454  12.571  17.897  1.00  0.00     0.014 C 
ENDBRANCH   8  10
ENDBRANCH   7   8
BRANCH   7  12
ATOM     12  C   UNL     1      13.425   9.394  19.630  1.00  0.00     0.044 A 
ATOM     13  C   UNL     1      13.860   8.058  19.620  1.00  0.00     0.026 A 
ATOM     14  C   UNL     1      13.552  10.152  20.805  1.00  0.00     0.026 A 
ATOM     15  C   UNL     1      14.361   7.475  20.787  1.00  0.00     0.002 A 
ATOM     16  C   UNL     1      14.062   9.567  21.967  1.00  0.00     0.002 A 
ATOM     17  C   UNL     1      14.456   8.227  21.962  1.00  0.00     0.000 A 
ENDBRANCH   7  12
ENDBRANCH   1   7
BRANCH   1  18
ATOM     18  C   UNL     1      10.755   8.804  18.387  1.00  0.00     0.188 C 
BRANCH  18  19
ATOM     19  O   UNL     1      10.588   8.145  17.146  1.00  0.00    -0.382 OA
ATOM     20  C   UNL     1      11.401   6.993  17.109  1.00  0.00     0.195 C 
ENDBRANCH  18  19
ENDBRANCH   1  18
BRANCH   4  21
ATOM     21  C   UNL     1       8.890  13.127  16.582  1.00  0.00     0.090 C 
BRANCH  21  22
ATOM     22  C   UNL     1       8.936  14.593  16.130  1.00  0.00     0.062 C 
BRANCH  22  23
ATOM     23  C   UNL     1       8.931  14.688  14.636  1.00  0.00     0.006 A 
ATOM     24  C   UNL     1       9.922  14.208  13.790  1.00  0.00     0.015 A 
ATOM     25  S   UNL     1       7.664  15.279  13.703  1.00  0.00    -0.149 S 
ATOM     26  C   UNL     1       9.612  14.369  12.434  1.00  0.00     0.012 A 
ATOM     27  C   UNL     1       8.373  14.957  12.212  1.00  0.00     0.065 A 
ENDBRANCH  22  23
ENDBRANCH  21  22
ENDBRANCH   4  21
TORSDOF 9
ENDMDL
MODEL 12
REMARK VINA RESULT:    -6.752      1.404      2.257
REMARK INTER + INTRA:         -11.732
REMARK INTER:                 -10.854
REMARK INTRA:                  -0.878
REMARK UNBOUND:                -1.428
REMARK SMILES CCC(=O)N(c1ccccc1)C1(COC)CCN(CCc2cccs2)CC1
REMARK SMILES IDX 12 1 16 2 17 3 18 4 26 5 27 6 5 7 3 8 4 9 2 10 1 11 6 12
REMARK SMILES IDX 7 13 11 14 8 15 10 16 9 17 13 18 14 19 15 20 19 21 20 22
REMARK SMILES IDX 21 23 22 24 25 25 23 26 24 27
REMARK H PARENT
REMARK Flexibility Score: inf
ROOT
ATOM      1  C   UNL     1      11.117  10.161  18.404  1.00  0.00     0.073 C 
ATOM      2  C   UNL     1      10.490  10.245  16.968  1.00  0.00     0.047 C 
ATOM      3  C   UNL     1      11.059  11.425  16.171  1.00  0.00     0.087 C 
ATOM      4  N   UNL     1      10.727  12.737  16.787  1.00  0.00    -0.303 NA
ATOM      5  C   UNL     1      10.548  12.671  18.261  1.00  0.00     0.087 C 
ATOM      6  C   UNL     1      11.460  11.611  18.893  1.00  0.00     0.047 C 
ENDROOT
BRANCH   1   7
ATOM      7  N   UNL     1      12.355   9.321  18.411  1.00  0.00    -0.304 N 
BRANCH   7   8
ATOM      8  C   UNL     1      12.782   8.576  17.259  1.00  0.00     0.227 C 
ATOM      9  O   UNL     1      12.183   7.514  16.940  1.00  0.00    -0.275 OA
BRANCH   8  10
ATOM     10  C   UNL     1      13.997   9.003  16.491  1.00  0.00     0.097 C 
ATOM     11  C   UNL     1      14.440  10.403  16.906  1.00  0.00     0.014 C 
ENDBRANCH   8  10
ENDBRANCH   7   8
BRANCH   7  12
ATOM     12  C   UNL     1      13.021   8.974  19.637  1.00  0.00     0.044 A 
ATOM     13  C   UNL     1      13.249   7.628  19.972  1.00  0.00     0.026 A 
ATOM     14  C   UNL     1      13.520   9.987  20.470  1.00  0.00     0.026 A 
ATOM     15  C   UNL     1      13.918   7.304  21.156  1.00  0.00     0.002 A 
ATOM     16  C   UNL     1      14.197   9.659  21.649  1.00  0.00     0.002 A 
ATOM     17  C   UNL     1      14.387   8.318  21.997  1.00  0.00     0.000 A 
ENDBRANCH   7  12
ENDBRANCH   1   7
BRANCH   1  18
ATOM     18  C   UNL     1      10.068   9.545  19.367  1.00  0.00     0.188 C 
BRANCH  18  19
ATOM     19  O   UNL     1       8.821   9.412  18.712  1.00  0.00    -0.382 OA
ATOM     20  C   UNL     1       7.842  10.153  19.406  1.00  0.00     0.195 C 
ENDBRANCH  18  19
ENDBRANCH   1  18
BRANCH   4  21
ATOM     21  C   UNL     1       9.567  13.375  16.126  1.00  0.00     0.090 C 
BRANCH  21  22
ATOM     22  C   UNL     1       8.395  13.550  17.102  1.00  0.00     0.062 C 
BRANCH  22  23
ATOM     23  C   UNL     1       7.571  14.743  16.732  1.00  0.00     0.006 A 
ATOM     24  C   UNL     1       6.906  14.929  15.527  1.00  0.00     0.015 A 
ATOM     25  S   UNL     1       7.194  16.021  17.758  1.00  0.00    -0.149 S 
ATOM     26  C   UNL     1       6.149  16.107  15.492  1.00  0.00     0.012 A 
ATOM     27  C   UNL     1       6.204  16.839  16.671  1.00  0.00     0.065 A 
ENDBRANCH  22  23
ENDBRANCH  21  22
ENDBRANCH   4  21
TORSDOF 9
ENDMDL
MODEL 13
REMARK VINA RESULT:    -6.747      3.793      4.941
REMARK INTER + INTRA:         -11.726
REMARK INTER:                 -10.423
REMARK INTRA:                  -1.303
REMARK UNBOUND:                -1.428
REMARK SMILES CCC(=O)N(c1ccccc1)C1(COC)CCN(CCc2cccs2)CC1
REMARK SMILES IDX 12 1 16 2 17 3 18 4 26 5 27 6 5 7 3 8 4 9 2 10 1 11 6 12
REMARK SMILES IDX 7 13 11 14 8 15 10 16 9 17 13 18 14 19 15 20 19 21 20 22
REMARK SMILES IDX 21 23 22 24 25 25 23 26 24 27
REMARK H PARENT
REMARK Flexibility Score: inf
ROOT
ATOM      1  C   UNL     1      11.111  11.378  17.220  1.00  0.00     0.073 C 
ATOM      2  C   UNL     1      11.341  11.435  15.668  1.00  0.00     0.047 C 
ATOM      3  C   UNL     1      12.628  12.190  15.314  1.00  0.00     0.087 C 
ATOM      4  N   UNL     1      12.577  13.619  15.725  1.00  0.00    -0.303 NA
ATOM      5  C   UNL     1      11.702  13.867  16.901  1.00  0.00     0.087 C 
ATOM      6  C   UNL     1      11.706  12.675  17.868  1.00  0.00     0.047 C 
ENDROOT
BRANCH   1   7
ATOM      7  N   UNL     1      11.757  10.171  17.822  1.00  0.00    -0.304 N 
BRANCH   7   8
ATOM      8  C   UNL     1      11.536   8.847  17.311  1.00  0.00     0.227 C 
ATOM      9  O   UNL     1      10.367   8.375  17.273  1.00  0.00    -0.275 OA
BRANCH   8  10
ATOM     10  C   UNL     1      12.697   7.986  16.913  1.00  0.00     0.097 C 
ATOM     11  C   UNL     1      13.636   8.739  15.975  1.00  0.00     0.014 C 
ENDBRANCH   8  10
ENDBRANCH   7   8
BRANCH   7  12
ATOM     12  C   UNL     1      12.393  10.224  19.112  1.00  0.00     0.044 A 
ATOM     13  C   UNL     1      11.666   9.937  20.280  1.00  0.00     0.026 A 
ATOM     14  C   UNL     1      13.768  10.485  19.201  1.00  0.00     0.026 A 
ATOM     15  C   UNL     1      12.301   9.969  21.525  1.00  0.00     0.002 A 
ATOM     16  C   UNL     1      14.401  10.507  20.448  1.00  0.00     0.002 A 
ATOM     17  C   UNL     1      13.666  10.260  21.610  1.00  0.00     0.000 A 
ENDBRANCH   7  12
ENDBRANCH   1   7
BRANCH   1  18
ATOM     18  C   UNL     1       9.584  11.339  17.493  1.00  0.00     0.188 C 
BRANCH  18  19
ATOM     19  O   UNL     1       9.282  12.039  18.685  1.00  0.00    -0.382 OA
ATOM     20  C   UNL     1       8.296  11.336  19.408  1.00  0.00     0.195 C 
ENDBRANCH  18  19
ENDBRANCH   1  18
BRANCH   4  21
ATOM     21  C   UNL     1      12.229  14.503  14.591  1.00  0.00     0.090 C 
BRANCH  21  22
ATOM     22  C   UNL     1      13.486  14.997  13.862  1.00  0.00     0.062 C 
BRANCH  22  23
ATOM     23  C   UNL     1      13.417  14.669  12.404  1.00  0.00     0.006 A 
ATOM     24  C   UNL     1      13.488  13.395  11.854  1.00  0.00     0.015 A 
ATOM     25  S   UNL     1      13.113  15.772  11.172  1.00  0.00    -0.149 S 
ATOM     26  C   UNL     1      13.317  13.385  10.464  1.00  0.00     0.012 A 
ATOM     27  C   UNL     1      13.096  14.645   9.922  1.00  0.00     0.065 A 
ENDBRANCH  22  23
ENDBRANCH  21  22
ENDBRANCH   4  21
TORSDOF 9
ENDMDL
MODEL 14
REMARK VINA RESULT:    -6.721      2.372      3.168
REMARK INTER + INTRA:         -11.685
REMARK INTER:                 -10.832
REMARK INTRA:                  -0.853
REMARK UNBOUND:                -1.428
REMARK SMILES CCC(=O)N(c1ccccc1)C1(COC)CCN(CCc2cccs2)CC1
REMARK SMILES IDX 12 1 16 2 17 3 18 4 26 5 27 6 5 7 3 8 4 9 2 10 1 11 6 12
REMARK SMILES IDX 7 13 11 14 8 15 10 16 9 17 13 18 14 19 15 20 19 21 20 22
REMARK SMILES IDX 21 23 22 24 25 25 23 26 24 27
REMARK H PARENT
REMARK Flexibility Score: inf
ROOT
ATOM      1  C   UNL     1      11.048  10.131  18.286  1.00  0.00     0.073 C 
ATOM      2  C   UNL     1      10.444  10.193  16.838  1.00  0.00     0.047 C 
ATOM      3  C   UNL     1      10.983  11.395  16.053  1.00  0.00     0.087 C 
ATOM      4  N   UNL     1      10.591  12.693  16.665  1.00  0.00    -0.303 NA
ATOM      5  C   UNL     1      10.388  12.618  18.135  1.00  0.00     0.087 C 
ATOM      6  C   UNL     1      11.327  11.591  18.782  1.00  0.00     0.047 C 
ENDROOT
BRANCH   1   7
ATOM      7  N   UNL     1      12.315   9.337  18.314  1.00  0.00    -0.304 N 
BRANCH   7   8
ATOM      8  C   UNL     1      12.791   8.611  17.169  1.00  0.00     0.227 C 
ATOM      9  O   UNL     1      12.227   7.536  16.828  1.00  0.00    -0.275 OA
BRANCH   8  10
ATOM     10  C   UNL     1      14.014   9.073  16.435  1.00  0.00     0.097 C 
ATOM     11  C   UNL     1      14.400  10.487  16.858  1.00  0.00     0.014 C 
ENDBRANCH   8  10
ENDBRANCH   7   8
BRANCH   7  12
ATOM     12  C   UNL     1      12.971   9.012  19.552  1.00  0.00     0.044 A 
ATOM     13  C   UNL     1      13.226   7.674  19.898  1.00  0.00     0.026 A 
ATOM     14  C   UNL     1      13.434  10.041  20.387  1.00  0.00     0.026 A 
ATOM     15  C   UNL     1      13.885   7.372  21.093  1.00  0.00     0.002 A 
ATOM     16  C   UNL     1      14.101   9.735  21.577  1.00  0.00     0.002 A 
ATOM     17  C   UNL     1      14.316   8.402  21.935  1.00  0.00     0.000 A 
ENDBRANCH   7  12
ENDBRANCH   1   7
BRANCH   1  18
ATOM     18  C   UNL     1      10.005   9.475  19.229  1.00  0.00     0.188 C 
BRANCH  18  19
ATOM     19  O   UNL     1       8.731   9.454  18.612  1.00  0.00    -0.382 OA
ATOM     20  C   UNL     1       7.817  10.192  19.392  1.00  0.00     0.195 C 
ENDBRANCH  18  19
ENDBRANCH   1  18
BRANCH   4  21
ATOM     21  C   UNL     1       9.420  13.289  15.983  1.00  0.00     0.090 C 
BRANCH  21  22
ATOM     22  C   UNL     1       9.812  14.551  15.202  1.00  0.00     0.062 C 
BRANCH  22  23
ATOM     23  C   UNL     1       9.853  14.274  13.732  1.00  0.00     0.006 A 
ATOM     24  C   UNL     1       8.976  14.786  12.785  1.00  0.00     0.015 A 
ATOM     25  S   UNL     1      11.048  13.394  12.941  1.00  0.00    -0.149 S 
ATOM     26  C   UNL     1       9.305  14.417  11.475  1.00  0.00     0.012 A 
ATOM     27  C   UNL     1      10.447  13.631  11.387  1.00  0.00     0.065 A 
ENDBRANCH  22  23
ENDBRANCH  21  22
ENDBRANCH   4  21
TORSDOF 9
ENDMDL
MODEL 15
REMARK VINA RESULT:    -6.700      1.444      2.867
REMARK INTER + INTRA:         -11.654
REMARK INTER:                 -10.496
REMARK INTRA:                  -1.158
REMARK UNBOUND:                -1.428
REMARK SMILES CCC(=O)N(c1ccccc1)C1(COC)CCN(CCc2cccs2)CC1
REMARK SMILES IDX 12 1 16 2 17 3 18 4 26 5 27 6 5 7 3 8 4 9 2 10 1 11 6 12
REMARK SMILES IDX 7 13 11 14 8 15 10 16 9 17 13 18 14 19 15 20 19 21 20 22
REMARK SMILES IDX 21 23 22 24 25 25 23 26 24 27
REMARK H PARENT
REMARK Flexibility Score: inf
ROOT
ATOM      1  C   UNL     1      11.475  10.160  18.476  1.00  0.00     0.073 C 
ATOM      2  C   UNL     1      11.348  11.678  18.099  1.00  0.00     0.047 C 
ATOM      3  C   UNL     1      10.663  12.482  19.211  1.00  0.00     0.087 C 
ATOM      4  N   UNL     1       9.259  12.047  19.441  1.00  0.00    -0.303 NA
ATOM      5  C   UNL     1       9.018  10.619  19.105  1.00  0.00     0.087 C 
ATOM      6  C   UNL     1      10.259   9.759  19.379  1.00  0.00     0.047 C 
ENDROOT
BRANCH   1   7
ATOM      7  N   UNL     1      12.754   9.883  19.200  1.00  0.00    -0.304 N 
BRANCH   7   8
ATOM      8  C   UNL     1      12.852   8.886  20.230  1.00  0.00     0.227 C 
ATOM      9  O   UNL     1      12.341   9.100  21.362  1.00  0.00    -0.275 OA
BRANCH   8  10
ATOM     10  C   UNL     1      13.642   7.634  19.996  1.00  0.00     0.097 C 
ATOM     11  C   UNL     1      14.575   7.352  21.170  1.00  0.00     0.014 C 
ENDBRANCH   8  10
ENDBRANCH   7   8
BRANCH   7  12
ATOM     12  C   UNL     1      13.872  10.785  19.122  1.00  0.00     0.044 A 
ATOM     13  C   UNL     1      14.241  11.566  20.231  1.00  0.00     0.026 A 
ATOM     14  C   UNL     1      14.652  10.830  17.957  1.00  0.00     0.026 A 
ATOM     15  C   UNL     1      15.343  12.421  20.151  1.00  0.00     0.002 A 
ATOM     16  C   UNL     1      15.760  11.680  17.883  1.00  0.00     0.002 A 
ATOM     17  C   UNL     1      16.098  12.483  18.976  1.00  0.00     0.000 A 
ENDBRANCH   7  12
ENDBRANCH   1   7
BRANCH   1  18
ATOM     18  C   UNL     1      11.426   9.321  17.171  1.00  0.00     0.188 C 
BRANCH  18  19
ATOM     19  O   UNL     1      10.678   8.138  17.378  1.00  0.00    -0.382 OA
ATOM     20  C   UNL     1      11.454   7.018  17.012  1.00  0.00     0.195 C 
ENDBRANCH  18  19
ENDBRANCH   1  18
BRANCH   4  21
ATOM     21  C   UNL     1       8.292  12.937  18.760  1.00  0.00     0.090 C 
BRANCH  21  22
ATOM     22  C   UNL     1       8.908  14.313  18.473  1.00  0.00     0.062 C 
BRANCH  22  23
ATOM     23  C   UNL     1       8.945  14.581  17.001  1.00  0.00     0.006 A 
ATOM     24  C   UNL     1       7.909  14.344  16.107  1.00  0.00     0.015 A 
ATOM     25  S   UNL     1      10.203  15.338  16.181  1.00  0.00    -0.149 S 
ATOM     26  C   UNL     1       8.201  14.764  14.803  1.00  0.00     0.012 A 
ATOM     27  C   UNL     1       9.456  15.347  14.674  1.00  0.00     0.065 A 
ENDBRANCH  22  23
ENDBRANCH  21  22
ENDBRANCH   4  21
TORSDOF 9
ENDMDL
