MODEL 1
REMARK VINA RESULT:    -8.086      0.000      0.000
REMARK INTER + INTRA:         -12.419
REMARK INTER:                 -10.686
REMARK INTRA:                  -1.733
REMARK UNBOUND:                -1.733
REMARK SMILES OC(CCN1CCCC1)(c1ccccc1)C1CCCCC1
REMARK SMILES IDX 3 1 2 2 1 3 16 5 17 6 21 7 18 8 20 9 19 10 10 11 11 12 15 13
REMARK SMILES IDX 12 14 14 15 13 16 4 17 5 18 6 19 9 20 7 21 8 22
REMARK H PARENT 1 4
REMARK Flexibility Score: inf
ROOT
ATOM      1  C   UNL     1      10.743  12.395  15.630  1.00  0.00     0.056 C 
ENDROOT
BRANCH   1   2
ATOM      2  C   UNL     1      12.247  12.489  15.199  1.00  0.00     0.094 C 
BRANCH   2   3
ATOM      3  O   UNL     1      12.818  13.629  15.808  1.00  0.00    -0.385 OA
ATOM      4  H   UNL     1      12.866  13.478  16.787  1.00  0.00     0.211 HD
ENDBRANCH   2   3
BRANCH   2   5
ATOM      5  C   UNL     1      12.376  12.597  13.624  1.00  0.00     0.025 C 
ATOM      6  C   UNL     1      10.999  12.620  12.901  1.00  0.00     0.007 C 
ATOM      7  C   UNL     1      13.232  13.800  13.147  1.00  0.00     0.007 C 
ATOM      8  C   UNL     1      11.053  13.207  11.473  1.00  0.00     0.000 C 
ATOM      9  C   UNL     1      13.537  13.712  11.638  1.00  0.00     0.000 C 
ATOM     10  C   UNL     1      12.428  13.014  10.827  1.00  0.00     0.000 C 
ENDBRANCH   2   5
BRANCH   2  11
ATOM     11  C   UNL     1      12.940  11.209  15.708  1.00  0.00    -0.016 A 
ATOM     12  C   UNL     1      13.886  11.242  16.758  1.00  0.00     0.007 A 
ATOM     13  C   UNL     1      12.591   9.952  15.166  1.00  0.00     0.007 A 
ATOM     14  C   UNL     1      14.488  10.065  17.213  1.00  0.00     0.000 A 
ATOM     15  C   UNL     1      13.198   8.780  15.627  1.00  0.00     0.000 A 
ATOM     16  C   UNL     1      14.149   8.837  16.645  1.00  0.00     0.000 A 
ENDBRANCH   2  11
ENDBRANCH   1   2
BRANCH   1  17
ATOM     17  C   UNL     1      10.417  12.977  17.022  1.00  0.00     0.088 C 
BRANCH  17  18
ATOM     18  N   UNL     1      10.052  11.898  17.962  1.00  0.00    -0.303 NA
ATOM     19  C   UNL     1       9.754  10.652  17.255  1.00  0.00     0.084 C 
ATOM     20  C   UNL     1      11.133  11.570  18.905  1.00  0.00     0.084 C 
ATOM     21  C   UNL     1      10.003   9.530  18.241  1.00  0.00     0.017 C 
ATOM     22  C   UNL     1      11.069  10.070  19.175  1.00  0.00     0.017 C 
ENDBRANCH  17  18
ENDBRANCH   1  17
TORSDOF 6
ENDMDL
MODEL 2
REMARK VINA RESULT:    -8.057      0.080      1.059
REMARK INTER + INTRA:         -12.380
REMARK INTER:                 -10.685
REMARK INTRA:                  -1.695
REMARK UNBOUND:                -1.733
REMARK SMILES OC(CCN1CCCC1)(c1ccccc1)C1CCCCC1
REMARK SMILES IDX 3 1 2 2 1 3 16 5 17 6 21 7 18 8 20 9 19 10 10 11 11 12 15 13
REMARK SMILES IDX 12 14 14 15 13 16 4 17 5 18 6 19 9 20 7 21 8 22
REMARK H PARENT 1 4
REMARK Flexibility Score: inf
ROOT
ATOM      1  C   UNL     1      10.785  12.482  15.680  1.00  0.00     0.056 C 
ENDROOT
BRANCH   1   2
ATOM      2  C   UNL     1      12.283  12.488  15.217  1.00  0.00     0.094 C 
BRANCH   2   3
ATOM      3  O   UNL     1      12.933  13.591  15.817  1.00  0.00    -0.385 OA
ATOM      4  H   UNL     1      12.257  14.289  16.015  1.00  0.00     0.211 HD
ENDBRANCH   2   3
BRANCH   2   5
ATOM      5  C   UNL     1      12.385  12.594  13.641  1.00  0.00     0.025 C 
ATOM      6  C   UNL     1      10.997  12.616  12.941  1.00  0.00     0.007 C 
ATOM      7  C   UNL     1      13.233  13.797  13.148  1.00  0.00     0.007 C 
ATOM      8  C   UNL     1      11.026  13.200  11.511  1.00  0.00     0.000 C 
ATOM      9  C   UNL     1      13.513  13.706  11.633  1.00  0.00     0.000 C 
ATOM     10  C   UNL     1      12.390  13.007  10.842  1.00  0.00     0.000 C 
ENDBRANCH   2   5
BRANCH   2  11
ATOM     11  C   UNL     1      12.910  11.168  15.709  1.00  0.00    -0.016 A 
ATOM     12  C   UNL     1      12.574   9.924  15.131  1.00  0.00     0.007 A 
ATOM     13  C   UNL     1      13.893  11.187  16.724  1.00  0.00     0.007 A 
ATOM     14  C   UNL     1      13.169   8.743  15.585  1.00  0.00     0.000 A 
ATOM     15  C   UNL     1      14.483  10.002  17.171  1.00  0.00     0.000 A 
ATOM     16  C   UNL     1      14.118   8.781  16.607  1.00  0.00     0.000 A 
ENDBRANCH   2  11
ENDBRANCH   1   2
BRANCH   1  17
ATOM     17  C   UNL     1      10.534  12.999  17.112  1.00  0.00     0.088 C 
BRANCH  17  18
ATOM     18  N   UNL     1      10.122  11.892  17.998  1.00  0.00    -0.303 NA
ATOM     19  C   UNL     1       9.756  10.702  17.230  1.00  0.00     0.084 C 
ATOM     20  C   UNL     1      11.192  11.460  18.910  1.00  0.00     0.084 C 
ATOM     21  C   UNL     1       9.956   9.518  18.153  1.00  0.00     0.017 C 
ATOM     22  C   UNL     1      11.055   9.954  19.103  1.00  0.00     0.017 C 
ENDBRANCH  17  18
ENDBRANCH   1  17
TORSDOF 6
ENDMDL
MODEL 3
REMARK VINA RESULT:    -7.527      2.717      4.608
REMARK INTER + INTRA:         -11.679
REMARK INTER:                  -9.948
REMARK INTRA:                  -1.731
REMARK UNBOUND:                -1.733
REMARK SMILES OC(CCN1CCCC1)(c1ccccc1)C1CCCCC1
REMARK SMILES IDX 3 1 2 2 1 3 16 5 17 6 21 7 18 8 20 9 19 10 10 11 11 12 15 13
REMARK SMILES IDX 12 14 14 15 13 16 4 17 5 18 6 19 9 20 7 21 8 22
REMARK H PARENT 1 4
REMARK Flexibility Score: inf
ROOT
ATOM      1  C   UNL     1      13.408  12.314  19.039  1.00  0.00     0.056 C 
ENDROOT
BRANCH   1   2
ATOM      2  C   UNL     1      14.560  11.492  18.363  1.00  0.00     0.094 C 
BRANCH   2   3
ATOM      3  O   UNL     1      15.074  10.579  19.311  1.00  0.00    -0.385 OA
ATOM      4  H   UNL     1      15.887  10.153  18.936  1.00  0.00     0.211 HD
ENDBRANCH   2   3
BRANCH   2   5
ATOM      5  C   UNL     1      15.714  12.451  17.858  1.00  0.00     0.025 C 
ATOM      6  C   UNL     1      15.239  13.918  17.650  1.00  0.00     0.007 C 
ATOM      7  C   UNL     1      16.978  12.439  18.759  1.00  0.00     0.007 C 
ATOM      8  C   UNL     1      16.387  14.952  17.645  1.00  0.00     0.000 C 
ATOM      9  C   UNL     1      18.154  13.181  18.091  1.00  0.00     0.000 C 
ATOM     10  C   UNL     1      17.708  14.337  17.174  1.00  0.00     0.000 C 
ENDBRANCH   2   5
BRANCH   2  11
ATOM     11  C   UNL     1      13.933  10.733  17.177  1.00  0.00    -0.016 A 
ATOM     12  C   UNL     1      14.163   9.354  16.970  1.00  0.00     0.007 A 
ATOM     13  C   UNL     1      13.054  11.401  16.295  1.00  0.00     0.007 A 
ATOM     14  C   UNL     1      13.570   8.686  15.895  1.00  0.00     0.000 A 
ATOM     15  C   UNL     1      12.465  10.725  15.224  1.00  0.00     0.000 A 
ATOM     16  C   UNL     1      12.726   9.371  15.020  1.00  0.00     0.000 A 
ENDBRANCH   2  11
ENDBRANCH   1   2
BRANCH   1  17
ATOM     17  C   UNL     1      12.841  11.710  20.340  1.00  0.00     0.088 C 
BRANCH  17  18
ATOM     18  N   UNL     1      11.520  11.097  20.096  1.00  0.00    -0.303 NA
ATOM     19  C   UNL     1      10.817  11.765  18.999  1.00  0.00     0.084 C 
ATOM     20  C   UNL     1      11.609   9.681  19.705  1.00  0.00     0.084 C 
ATOM     21  C   UNL     1       9.843  10.752  18.435  1.00  0.00     0.017 C 
ATOM     22  C   UNL     1      10.486   9.406  18.709  1.00  0.00     0.017 C 
ENDBRANCH  17  18
ENDBRANCH   1  17
TORSDOF 6
ENDMDL
MODEL 4
REMARK VINA RESULT:    -7.491      1.209      2.109
REMARK INTER + INTRA:         -11.632
REMARK INTER:                 -10.691
REMARK INTRA:                  -0.941
REMARK UNBOUND:                -1.733
REMARK SMILES OC(CCN1CCCC1)(c1ccccc1)C1CCCCC1
REMARK SMILES IDX 3 1 2 2 1 3 16 5 17 6 21 7 18 8 20 9 19 10 10 11 11 12 15 13
REMARK SMILES IDX 12 14 14 15 13 16 4 17 5 18 6 19 9 20 7 21 8 22
REMARK H PARENT 1 4
REMARK Flexibility Score: inf
ROOT
ATOM      1  C   UNL     1      10.609  12.287  15.518  1.00  0.00     0.056 C 
ENDROOT
BRANCH   1   2
ATOM      2  C   UNL     1      12.125  12.459  15.158  1.00  0.00     0.094 C 
BRANCH   2   3
ATOM      3  O   UNL     1      12.613  13.613  15.812  1.00  0.00    -0.385 OA
ATOM      4  H   UNL     1      11.941  14.337  15.723  1.00  0.00     0.211 HD
ENDBRANCH   2   3
BRANCH   2   5
ATOM      5  C   UNL     1      12.318  12.604  13.593  1.00  0.00     0.025 C 
ATOM      6  C   UNL     1      10.973  12.652  12.815  1.00  0.00     0.007 C 
ATOM      7  C   UNL     1      13.199  13.814  13.180  1.00  0.00     0.007 C 
ATOM      8  C   UNL     1      11.087  13.272  11.405  1.00  0.00     0.000 C 
ATOM      9  C   UNL     1      13.565  13.760  11.683  1.00  0.00     0.000 C 
ATOM     10  C   UNL     1      12.487  13.087  10.811  1.00  0.00     0.000 C 
ENDBRANCH   2   5
BRANCH   2  11
ATOM     11  C   UNL     1      12.854  11.204  15.676  1.00  0.00    -0.016 A 
ATOM     12  C   UNL     1      13.800  11.272  16.724  1.00  0.00     0.007 A 
ATOM     13  C   UNL     1      12.540   9.933  15.144  1.00  0.00     0.007 A 
ATOM     14  C   UNL     1      14.436  10.116  17.186  1.00  0.00     0.000 A 
ATOM     15  C   UNL     1      13.180   8.783  15.613  1.00  0.00     0.000 A 
ATOM     16  C   UNL     1      14.131   8.874  16.629  1.00  0.00     0.000 A 
ENDBRANCH   2  11
ENDBRANCH   1   2
BRANCH   1  17
ATOM     17  C   UNL     1      10.314  11.967  16.999  1.00  0.00     0.088 C 
BRANCH  17  18
ATOM     18  N   UNL     1       9.064  12.622  17.433  1.00  0.00    -0.303 NA
ATOM     19  C   UNL     1       9.272  13.422  18.640  1.00  0.00     0.084 C 
ATOM     20  C   UNL     1       8.527  13.554  16.429  1.00  0.00     0.084 C 
ATOM     21  C   UNL     1       8.193  14.484  18.642  1.00  0.00     0.017 C 
ATOM     22  C   UNL     1       7.879  14.715  17.176  1.00  0.00     0.017 C 
ENDBRANCH  17  18
ENDBRANCH   1  17
TORSDOF 6
ENDMDL
MODEL 5
REMARK VINA RESULT:    -7.383     10.519     13.696
REMARK INTER + INTRA:         -11.489
REMARK INTER:                 -10.201
REMARK INTRA:                  -1.288
REMARK UNBOUND:                -1.733
REMARK SMILES OC(CCN1CCCC1)(c1ccccc1)C1CCCCC1
REMARK SMILES IDX 3 1 2 2 1 3 16 5 17 6 21 7 18 8 20 9 19 10 10 11 11 12 15 13
REMARK SMILES IDX 12 14 14 15 13 16 4 17 5 18 6 19 9 20 7 21 8 22
REMARK H PARENT 1 4
REMARK Flexibility Score: inf
ROOT
ATOM      1  C   UNL     1      18.267  13.805   3.240  1.00  0.00     0.056 C 
ENDROOT
BRANCH   1   2
ATOM      2  C   UNL     1      16.969  13.041   3.678  1.00  0.00     0.094 C 
BRANCH   2   3
ATOM      3  O   UNL     1      17.345  11.778   4.190  1.00  0.00    -0.385 OA
ATOM      4  H   UNL     1      17.205  11.094   3.486  1.00  0.00     0.211 HD
ENDBRANCH   2   3
BRANCH   2   5
ATOM      5  C   UNL     1      15.985  12.854   2.452  1.00  0.00     0.025 C 
ATOM      6  C   UNL     1      16.576  13.378   1.112  1.00  0.00     0.007 C 
ATOM      7  C   UNL     1      15.488  11.396   2.264  1.00  0.00     0.007 C 
ATOM      8  C   UNL     1      15.896  12.788  -0.144  1.00  0.00     0.000 C 
ATOM      9  C   UNL     1      14.346  11.318   1.231  1.00  0.00     0.000 C 
ATOM     10  C   UNL     1      14.443  12.389   0.127  1.00  0.00     0.000 C 
ENDBRANCH   2   5
BRANCH   2  11
ATOM     11  C   UNL     1      16.301  13.886   4.781  1.00  0.00    -0.016 A 
ATOM     12  C   UNL     1      15.434  13.311   5.737  1.00  0.00     0.007 A 
ATOM     13  C   UNL     1      16.596  15.264   4.892  1.00  0.00     0.007 A 
ATOM     14  C   UNL     1      14.854  14.097   6.737  1.00  0.00     0.000 A 
ATOM     15  C   UNL     1      16.011  16.041   5.895  1.00  0.00     0.000 A 
ATOM     16  C   UNL     1      15.137  15.461   6.813  1.00  0.00     0.000 A 
ENDBRANCH   2  11
ENDBRANCH   1   2
BRANCH   1  17
ATOM     17  C   UNL     1      19.571  12.984   3.307  1.00  0.00     0.088 C 
BRANCH  17  18
ATOM     18  N   UNL     1      20.130  13.007   4.674  1.00  0.00    -0.303 NA
ATOM     19  C   UNL     1      21.376  12.242   4.754  1.00  0.00     0.084 C 
ATOM     20  C   UNL     1      20.469  14.364   5.131  1.00  0.00     0.084 C 
ATOM     21  C   UNL     1      22.152  12.810   5.923  1.00  0.00     0.017 C 
ATOM     22  C   UNL     1      21.710  14.258   6.012  1.00  0.00     0.017 C 
ENDBRANCH  17  18
ENDBRANCH   1  17
TORSDOF 6
ENDMDL
MODEL 6
REMARK VINA RESULT:    -7.254      1.402      1.915
REMARK INTER + INTRA:         -11.319
REMARK INTER:                 -10.008
REMARK INTRA:                  -1.311
REMARK UNBOUND:                -1.733
REMARK SMILES OC(CCN1CCCC1)(c1ccccc1)C1CCCCC1
REMARK SMILES IDX 3 1 2 2 1 3 16 5 17 6 21 7 18 8 20 9 19 10 10 11 11 12 15 13
REMARK SMILES IDX 12 14 14 15 13 16 4 17 5 18 6 19 9 20 7 21 8 22
REMARK H PARENT 1 4
REMARK Flexibility Score: inf
ROOT
ATOM      1  C   UNL     1      11.192  10.830  15.791  1.00  0.00     0.056 C 
ENDROOT
BRANCH   1   2
ATOM      2  C   UNL     1      11.968  12.180  15.611  1.00  0.00     0.094 C 
BRANCH   2   3
ATOM      3  O   UNL     1      11.155  13.232  16.091  1.00  0.00    -0.385 OA
ATOM      4  H   UNL     1      10.204  12.990  15.948  1.00  0.00     0.211 HD
ENDBRANCH   2   3
BRANCH   2   5
ATOM      5  C   UNL     1      12.325  12.425  14.088  1.00  0.00     0.025 C 
ATOM      6  C   UNL     1      11.105  12.248  13.141  1.00  0.00     0.007 C 
ATOM      7  C   UNL     1      12.997  13.798  13.816  1.00  0.00     0.007 C 
ATOM      8  C   UNL     1      11.273  12.937  11.769  1.00  0.00     0.000 C 
ATOM      9  C   UNL     1      13.552  13.879  12.379  1.00  0.00     0.000 C 
ATOM     10  C   UNL     1      12.744  13.050  11.361  1.00  0.00     0.000 C 
ENDBRANCH   2   5
BRANCH   2  11
ATOM     11  C   UNL     1      13.255  12.073  16.454  1.00  0.00    -0.016 A 
ATOM     12  C   UNL     1      13.859  13.210  17.037  1.00  0.00     0.007 A 
ATOM     13  C   UNL     1      13.827  10.808  16.714  1.00  0.00     0.007 A 
ATOM     14  C   UNL     1      15.016  13.084  17.811  1.00  0.00     0.000 A 
ATOM     15  C   UNL     1      14.984  10.692  17.489  1.00  0.00     0.000 A 
ATOM     16  C   UNL     1      15.581  11.828  18.032  1.00  0.00     0.000 A 
ENDBRANCH   2  11
ENDBRANCH   1   2
BRANCH   1  17
ATOM     17  C   UNL     1      10.120  10.827  16.901  1.00  0.00     0.088 C 
BRANCH  17  18
ATOM     18  N   UNL     1      10.357   9.719  17.848  1.00  0.00    -0.303 NA
ATOM     19  C   UNL     1      11.093   8.624  17.214  1.00  0.00     0.084 C 
ATOM     20  C   UNL     1      11.167  10.120  19.009  1.00  0.00     0.084 C 
ATOM     21  C   UNL     1      11.799   7.881  18.329  1.00  0.00     0.017 C 
ATOM     22  C   UNL     1      12.036   8.929  19.399  1.00  0.00     0.017 C 
ENDBRANCH  17  18
ENDBRANCH   1  17
TORSDOF 6
ENDMDL
MODEL 7
REMARK VINA RESULT:    -7.186      1.981      5.237
REMARK INTER + INTRA:         -11.230
REMARK INTER:                  -9.936
REMARK INTRA:                  -1.294
REMARK UNBOUND:                -1.733
REMARK SMILES OC(CCN1CCCC1)(c1ccccc1)C1CCCCC1
REMARK SMILES IDX 3 1 2 2 1 3 16 5 17 6 21 7 18 8 20 9 19 10 10 11 11 12 15 13
REMARK SMILES IDX 12 14 14 15 13 16 4 17 5 18 6 19 9 20 7 21 8 22
REMARK H PARENT 1 4
REMARK Flexibility Score: inf
ROOT
ATOM      1  C   UNL     1      12.576  13.124  14.296  1.00  0.00     0.056 C 
ENDROOT
BRANCH   1   2
ATOM      2  C   UNL     1      11.727  11.964  14.923  1.00  0.00     0.094 C 
BRANCH   2   3
ATOM      3  O   UNL     1      11.046  11.293  13.882  1.00  0.00    -0.385 OA
ATOM      4  H   UNL     1      10.461  11.943  13.415  1.00  0.00     0.211 HD
ENDBRANCH   2   3
BRANCH   2   5
ATOM      5  C   UNL     1      10.686  12.532  15.971  1.00  0.00     0.025 C 
ATOM      6  C   UNL     1       9.634  13.482  15.331  1.00  0.00     0.007 C 
ATOM      7  C   UNL     1       9.959  11.433  16.791  1.00  0.00     0.007 C 
ATOM      8  C   UNL     1       8.352  13.655  16.175  1.00  0.00     0.000 C 
ATOM      9  C   UNL     1       9.157  12.039  17.961  1.00  0.00     0.000 C 
ATOM     10  C   UNL     1       8.619  13.453  17.669  1.00  0.00     0.000 C 
ENDBRANCH   2   5
BRANCH   2  11
ATOM     11  C   UNL     1      12.719  11.007  15.615  1.00  0.00    -0.016 A 
ATOM     12  C   UNL     1      13.593  11.450  16.633  1.00  0.00     0.007 A 
ATOM     13  C   UNL     1      12.727   9.634  15.280  1.00  0.00     0.007 A 
ATOM     14  C   UNL     1      14.471  10.558  17.256  1.00  0.00     0.000 A 
ATOM     15  C   UNL     1      13.608   8.750  15.909  1.00  0.00     0.000 A 
ATOM     16  C   UNL     1      14.483   9.211  16.891  1.00  0.00     0.000 A 
ENDBRANCH   2  11
ENDBRANCH   1   2
BRANCH   1  17
ATOM     17  C   UNL     1      12.600  13.164  12.753  1.00  0.00     0.088 C 
BRANCH  17  18
ATOM     18  N   UNL     1      11.274  13.543  12.224  1.00  0.00    -0.303 NA
ATOM     19  C   UNL     1      11.103  14.997  12.205  1.00  0.00     0.084 C 
ATOM     20  C   UNL     1      11.065  13.103  10.836  1.00  0.00     0.084 C 
ATOM     21  C   UNL     1      10.071  15.293  11.137  1.00  0.00     0.017 C 
ATOM     22  C   UNL     1      10.217  14.162  10.138  1.00  0.00     0.017 C 
ENDBRANCH  17  18
ENDBRANCH   1  17
TORSDOF 6
ENDMDL
MODEL 8
REMARK VINA RESULT:    -7.105     10.591     13.955
REMARK INTER + INTRA:         -11.122
REMARK INTER:                 -10.382
REMARK INTRA:                  -0.740
REMARK UNBOUND:                -1.733
REMARK SMILES OC(CCN1CCCC1)(c1ccccc1)C1CCCCC1
REMARK SMILES IDX 3 1 2 2 1 3 16 5 17 6 21 7 18 8 20 9 19 10 10 11 11 12 15 13
REMARK SMILES IDX 12 14 14 15 13 16 4 17 5 18 6 19 9 20 7 21 8 22
REMARK H PARENT 1 4
REMARK Flexibility Score: inf
ROOT
ATOM      1  C   UNL     1      18.105  12.757   3.961  1.00  0.00     0.056 C 
ENDROOT
BRANCH   1   2
ATOM      2  C   UNL     1      17.085  13.803   3.392  1.00  0.00     0.094 C 
BRANCH   2   3
ATOM      3  O   UNL     1      17.811  14.841   2.766  1.00  0.00    -0.385 OA
ATOM      4  H   UNL     1      18.145  14.514   1.891  1.00  0.00     0.211 HD
ENDBRANCH   2   3
BRANCH   2   5
ATOM      5  C   UNL     1      16.184  14.398   4.550  1.00  0.00     0.025 C 
ATOM      6  C   UNL     1      15.030  15.296   4.024  1.00  0.00     0.007 C 
ATOM      7  C   UNL     1      15.608  13.323   5.509  1.00  0.00     0.007 C 
ATOM      8  C   UNL     1      13.873  15.482   5.030  1.00  0.00     0.000 C 
ATOM      9  C   UNL     1      14.960  13.965   6.753  1.00  0.00     0.000 C 
ATOM     10  C   UNL     1      14.349  15.353   6.479  1.00  0.00     0.000 C 
ENDBRANCH   2   5
BRANCH   2  11
ATOM     11  C   UNL     1      16.213  13.063   2.358  1.00  0.00    -0.016 A 
ATOM     12  C   UNL     1      16.106  13.507   1.021  1.00  0.00     0.007 A 
ATOM     13  C   UNL     1      15.542  11.874   2.721  1.00  0.00     0.007 A 
ATOM     14  C   UNL     1      15.321  12.808   0.099  1.00  0.00     0.000 A 
ATOM     15  C   UNL     1      14.760  11.182   1.793  1.00  0.00     0.000 A 
ATOM     16  C   UNL     1      14.645  11.651   0.485  1.00  0.00     0.000 A 
ENDBRANCH   2  11
ENDBRANCH   1   2
BRANCH   1  17
ATOM     17  C   UNL     1      19.588  13.040   3.643  1.00  0.00     0.088 C 
BRANCH  17  18
ATOM     18  N   UNL     1      20.421  12.858   4.849  1.00  0.00    -0.303 NA
ATOM     19  C   UNL     1      21.616  12.064   4.557  1.00  0.00     0.084 C 
ATOM     20  C   UNL     1      20.917  14.129   5.400  1.00  0.00     0.084 C 
ATOM     21  C   UNL     1      22.648  12.444   5.598  1.00  0.00     0.017 C 
ATOM     22  C   UNL     1      22.307  13.873   5.972  1.00  0.00     0.017 C 
ENDBRANCH  17  18
ENDBRANCH   1  17
TORSDOF 6
ENDMDL
MODEL 9
REMARK VINA RESULT:    -7.044      1.218      4.257
REMARK INTER + INTRA:         -11.041
REMARK INTER:                  -9.381
REMARK INTRA:                  -1.660
REMARK UNBOUND:                -1.733
REMARK SMILES OC(CCN1CCCC1)(c1ccccc1)C1CCCCC1
REMARK SMILES IDX 3 1 2 2 1 3 16 5 17 6 21 7 18 8 20 9 19 10 10 11 11 12 15 13
REMARK SMILES IDX 12 14 14 15 13 16 4 17 5 18 6 19 9 20 7 21 8 22
REMARK H PARENT 1 4
REMARK Flexibility Score: inf
ROOT
ATOM      1  C   UNL     1      11.554  13.077  16.675  1.00  0.00     0.056 C 
ENDROOT
BRANCH   1   2
ATOM      2  C   UNL     1      11.810  12.400  15.284  1.00  0.00     0.094 C 
BRANCH   2   3
ATOM      3  O   UNL     1      10.562  12.148  14.671  1.00  0.00    -0.385 OA
ATOM      4  H   UNL     1      10.251  11.246  14.942  1.00  0.00     0.211 HD
ENDBRANCH   2   3
BRANCH   2   5
ATOM      5  C   UNL     1      12.610  11.045  15.457  1.00  0.00     0.025 C 
ATOM      6  C   UNL     1      13.733  11.133  16.529  1.00  0.00     0.007 C 
ATOM      7  C   UNL     1      11.706   9.819  15.754  1.00  0.00     0.007 C 
ATOM      8  C   UNL     1      14.188   9.760  17.073  1.00  0.00     0.000 C 
ATOM      9  C   UNL     1      12.497   8.498  15.659  1.00  0.00     0.000 C 
ATOM     10  C   UNL     1      13.981   8.642  16.048  1.00  0.00     0.000 C 
ENDBRANCH   2   5
BRANCH   2  11
ATOM     11  C   UNL     1      12.626  13.401  14.441  1.00  0.00    -0.016 A 
ATOM     12  C   UNL     1      13.247  14.530  15.022  1.00  0.00     0.007 A 
ATOM     13  C   UNL     1      12.820  13.171  13.061  1.00  0.00     0.007 A 
ATOM     14  C   UNL     1      13.995  15.414  14.238  1.00  0.00     0.000 A 
ATOM     15  C   UNL     1      13.569  14.060  12.285  1.00  0.00     0.000 A 
ATOM     16  C   UNL     1      14.151  15.183  12.872  1.00  0.00     0.000 A 
ENDBRANCH   2  11
ENDBRANCH   1   2
BRANCH   1  17
ATOM     17  C   UNL     1      10.071  13.208  17.081  1.00  0.00     0.088 C 
BRANCH  17  18
ATOM     18  N   UNL     1       9.756  12.292  18.196  1.00  0.00    -0.303 NA
ATOM     19  C   UNL     1       9.036  11.107  17.725  1.00  0.00     0.084 C 
ATOM     20  C   UNL     1      10.957  11.781  18.874  1.00  0.00     0.084 C 
ATOM     21  C   UNL     1       9.304  10.013  18.737  1.00  0.00     0.017 C 
ATOM     22  C   UNL     1      10.664  10.351  19.316  1.00  0.00     0.017 C 
ENDBRANCH  17  18
ENDBRANCH   1  17
TORSDOF 6
ENDMDL
MODEL 10
REMARK VINA RESULT:    -7.006      1.921      5.505
REMARK INTER + INTRA:         -10.991
REMARK INTER:                 -10.058
REMARK INTRA:                  -0.933
REMARK UNBOUND:                -1.733
REMARK SMILES OC(CCN1CCCC1)(c1ccccc1)C1CCCCC1
REMARK SMILES IDX 3 1 2 2 1 3 16 5 17 6 21 7 18 8 20 9 19 10 10 11 11 12 15 13
REMARK SMILES IDX 12 14 14 15 13 16 4 17 5 18 6 19 9 20 7 21 8 22
REMARK H PARENT 1 4
REMARK Flexibility Score: inf
ROOT
ATOM      1  C   UNL     1      11.831  12.597  14.631  1.00  0.00     0.056 C 
ENDROOT
BRANCH   1   2
ATOM      2  C   UNL     1      11.937  11.216  15.365  1.00  0.00     0.094 C 
BRANCH   2   3
ATOM      3  O   UNL     1      12.128  10.206  14.395  1.00  0.00    -0.385 OA
ATOM      4  H   UNL     1      11.712  10.500  13.543  1.00  0.00     0.211 HD
ENDBRANCH   2   3
BRANCH   2   5
ATOM      5  C   UNL     1      10.625  10.920  16.200  1.00  0.00     0.025 C 
ATOM      6  C   UNL     1      10.757   9.676  17.123  1.00  0.00     0.007 C 
ATOM      7  C   UNL     1      10.127  12.131  17.033  1.00  0.00     0.007 C 
ATOM      8  C   UNL     1       9.734   9.642  18.279  1.00  0.00     0.000 C 
ATOM      9  C   UNL     1       8.722  11.876  17.616  1.00  0.00     0.000 C 
ATOM     10  C   UNL     1       8.446  10.391  17.926  1.00  0.00     0.000 C 
ENDBRANCH   2   5
BRANCH   2  11
ATOM     11  C   UNL     1      13.162  11.297  16.298  1.00  0.00    -0.016 A 
ATOM     12  C   UNL     1      13.629  12.530  16.807  1.00  0.00     0.007 A 
ATOM     13  C   UNL     1      13.812  10.114  16.717  1.00  0.00     0.007 A 
ATOM     14  C   UNL     1      14.732  12.574  17.665  1.00  0.00     0.000 A 
ATOM     15  C   UNL     1      14.913  10.169  17.575  1.00  0.00     0.000 A 
ATOM     16  C   UNL     1      15.377  11.397  18.044  1.00  0.00     0.000 A 
ENDBRANCH   2  11
ENDBRANCH   1   2
BRANCH   1  17
ATOM     17  C   UNL     1      10.947  12.606  13.366  1.00  0.00     0.088 C 
BRANCH  17  18
ATOM     18  N   UNL     1      11.783  12.588  12.148  1.00  0.00    -0.303 NA
ATOM     19  C   UNL     1      11.136  13.303  11.047  1.00  0.00     0.084 C 
ATOM     20  C   UNL     1      13.084  13.247  12.338  1.00  0.00     0.084 C 
ATOM     21  C   UNL     1      12.245  13.757  10.121  1.00  0.00     0.017 C 
ATOM     22  C   UNL     1      13.452  13.928  11.023  1.00  0.00     0.017 C 
ENDBRANCH  17  18
ENDBRANCH   1  17
TORSDOF 6
ENDMDL
MODEL 11
REMARK VINA RESULT:    -6.985     10.619     13.886
REMARK INTER + INTRA:         -10.963
REMARK INTER:                  -9.882
REMARK INTRA:                  -1.081
REMARK UNBOUND:                -1.733
REMARK SMILES OC(CCN1CCCC1)(c1ccccc1)C1CCCCC1
REMARK SMILES IDX 3 1 2 2 1 3 16 5 17 6 21 7 18 8 20 9 19 10 10 11 11 12 15 13
REMARK SMILES IDX 12 14 14 15 13 16 4 17 5 18 6 19 9 20 7 21 8 22
REMARK H PARENT 1 4
REMARK Flexibility Score: inf
ROOT
ATOM      1  C   UNL     1      17.554  13.276   4.064  1.00  0.00     0.056 C 
ENDROOT
BRANCH   1   2
ATOM      2  C   UNL     1      16.369  14.002   3.337  1.00  0.00     0.094 C 
BRANCH   2   3
ATOM      3  O   UNL     1      16.867  15.179   2.735  1.00  0.00    -0.385 OA
ATOM      4  H   UNL     1      16.291  15.410   1.961  1.00  0.00     0.211 HD
ENDBRANCH   2   3
BRANCH   2   5
ATOM      5  C   UNL     1      15.218  14.365   4.361  1.00  0.00     0.025 C 
ATOM      6  C   UNL     1      15.517  13.882   5.809  1.00  0.00     0.007 C 
ATOM      7  C   UNL     1      14.853  15.873   4.383  1.00  0.00     0.007 C 
ATOM      8  C   UNL     1      14.701  14.619   6.894  1.00  0.00     0.000 C 
ATOM      9  C   UNL     1      13.568  16.131   5.197  1.00  0.00     0.000 C 
ATOM     10  C   UNL     1      13.364  15.134   6.355  1.00  0.00     0.000 C 
ENDBRANCH   2   5
BRANCH   2  11
ATOM     11  C   UNL     1      15.844  13.033   2.259  1.00  0.00    -0.016 A 
ATOM     12  C   UNL     1      15.259  11.791   2.596  1.00  0.00     0.007 A 
ATOM     13  C   UNL     1      15.883  13.402   0.895  1.00  0.00     0.007 A 
ATOM     14  C   UNL     1      14.776  10.937   1.600  1.00  0.00     0.000 A 
ATOM     15  C   UNL     1      15.397  12.543  -0.093  1.00  0.00     0.000 A 
ATOM     16  C   UNL     1      14.849  11.309   0.257  1.00  0.00     0.000 A 
ENDBRANCH   2  11
ENDBRANCH   1   2
BRANCH   1  17
ATOM     17  C   UNL     1      18.751  12.903   3.165  1.00  0.00     0.088 C 
BRANCH  17  18
ATOM     18  N   UNL     1      20.006  13.453   3.716  1.00  0.00    -0.303 NA
ATOM     19  C   UNL     1      19.742  14.542   4.658  1.00  0.00     0.084 C 
ATOM     20  C   UNL     1      20.784  12.458   4.470  1.00  0.00     0.084 C 
ATOM     21  C   UNL     1      20.937  14.605   5.586  1.00  0.00     0.017 C 
ATOM     22  C   UNL     1      21.469  13.185   5.623  1.00  0.00     0.017 C 
ENDBRANCH  17  18
ENDBRANCH   1  17
TORSDOF 6
ENDMDL
MODEL 12
REMARK VINA RESULT:    -6.936      1.835      4.725
REMARK INTER + INTRA:         -10.899
REMARK INTER:                 -10.205
REMARK INTRA:                  -0.693
REMARK UNBOUND:                -1.733
REMARK SMILES OC(CCN1CCCC1)(c1ccccc1)C1CCCCC1
REMARK SMILES IDX 3 1 2 2 1 3 16 5 17 6 21 7 18 8 20 9 19 10 10 11 11 12 15 13
REMARK SMILES IDX 12 14 14 15 13 16 4 17 5 18 6 19 9 20 7 21 8 22
REMARK H PARENT 1 4
REMARK Flexibility Score: inf
ROOT
ATOM      1  C   UNL     1      10.583  10.572  16.635  1.00  0.00     0.056 C 
ENDROOT
BRANCH   1   2
ATOM      2  C   UNL     1      11.702  10.724  15.547  1.00  0.00     0.094 C 
BRANCH   2   3
ATOM      3  O   UNL     1      11.765   9.526  14.799  1.00  0.00    -0.385 OA
ATOM      4  H   UNL     1      12.622   9.507  14.301  1.00  0.00     0.211 HD
ENDBRANCH   2   3
BRANCH   2   5
ATOM      5  C   UNL     1      13.105  11.015  16.219  1.00  0.00     0.025 C 
ATOM      6  C   UNL     1      13.242  12.475  16.736  1.00  0.00     0.007 C 
ATOM      7  C   UNL     1      13.471  10.026  17.359  1.00  0.00     0.007 C 
ATOM      8  C   UNL     1      14.345  12.661  17.802  1.00  0.00     0.000 C 
ATOM      9  C   UNL     1      14.940  10.191  17.799  1.00  0.00     0.000 C 
ATOM     10  C   UNL     1      15.468  11.631  17.649  1.00  0.00     0.000 C 
ENDBRANCH   2   5
BRANCH   2  11
ATOM     11  C   UNL     1      11.287  11.899  14.639  1.00  0.00    -0.016 A 
ATOM     12  C   UNL     1      10.300  12.831  15.032  1.00  0.00     0.007 A 
ATOM     13  C   UNL     1      11.941  12.102  13.402  1.00  0.00     0.007 A 
ATOM     14  C   UNL     1       9.954  13.897  14.196  1.00  0.00     0.000 A 
ATOM     15  C   UNL     1      11.588  13.171  12.574  1.00  0.00     0.000 A 
ATOM     16  C   UNL     1      10.592  14.064  12.967  1.00  0.00     0.000 A 
ENDBRANCH   2  11
ENDBRANCH   1   2
BRANCH   1  17
ATOM     17  C   UNL     1      10.393   9.145  17.191  1.00  0.00     0.088 C 
BRANCH  17  18
ATOM     18  N   UNL     1       9.327   9.124  18.213  1.00  0.00    -0.303 NA
ATOM     19  C   UNL     1       9.832   9.554  19.519  1.00  0.00     0.084 C 
ATOM     20  C   UNL     1       8.215  10.034  17.900  1.00  0.00     0.084 C 
ATOM     21  C   UNL     1       8.638  10.082  20.286  1.00  0.00     0.017 C 
ATOM     22  C   UNL     1       7.690  10.594  19.218  1.00  0.00     0.017 C 
ENDBRANCH  17  18
ENDBRANCH   1  17
TORSDOF 6
ENDMDL
MODEL 13
REMARK VINA RESULT:    -6.896      2.823      6.379
REMARK INTER + INTRA:         -10.846
REMARK INTER:                  -9.344
REMARK INTRA:                  -1.502
REMARK UNBOUND:                -1.733
REMARK SMILES OC(CCN1CCCC1)(c1ccccc1)C1CCCCC1
REMARK SMILES IDX 3 1 2 2 1 3 16 5 17 6 21 7 18 8 20 9 19 10 10 11 11 12 15 13
REMARK SMILES IDX 12 14 14 15 13 16 4 17 5 18 6 19 9 20 7 21 8 22
REMARK H PARENT 1 4
REMARK Flexibility Score: inf
ROOT
ATOM      1  C   UNL     1      12.403  10.273  17.888  1.00  0.00     0.056 C 
ENDROOT
BRANCH   1   2
ATOM      2  C   UNL     1      13.942  10.043  18.081  1.00  0.00     0.094 C 
BRANCH   2   3
ATOM      3  O   UNL     1      14.389   9.146  17.085  1.00  0.00    -0.385 OA
ATOM      4  H   UNL     1      14.427   8.234  17.471  1.00  0.00     0.211 HD
ENDBRANCH   2   3
BRANCH   2   5
ATOM      5  C   UNL     1      14.245   9.448  19.517  1.00  0.00     0.025 C 
ATOM      6  C   UNL     1      13.578  10.258  20.665  1.00  0.00     0.007 C 
ATOM      7  C   UNL     1      13.881   7.947  19.663  1.00  0.00     0.007 C 
ATOM      8  C   UNL     1      13.430   9.467  21.984  1.00  0.00     0.000 C 
ATOM      9  C   UNL     1      14.429   7.358  20.979  1.00  0.00     0.000 C 
ATOM     10  C   UNL     1      14.504   8.385  22.126  1.00  0.00     0.000 C 
ENDBRANCH   2   5
BRANCH   2  11
ATOM     11  C   UNL     1      14.626  11.414  17.911  1.00  0.00    -0.016 A 
ATOM     12  C   UNL     1      15.976  11.623  18.274  1.00  0.00     0.007 A 
ATOM     13  C   UNL     1      13.920  12.488  17.323  1.00  0.00     0.007 A 
ATOM     14  C   UNL     1      16.577  12.872  18.095  1.00  0.00     0.000 A 
ATOM     15  C   UNL     1      14.530  13.733  17.148  1.00  0.00     0.000 A 
ATOM     16  C   UNL     1      15.854  13.927  17.538  1.00  0.00     0.000 A 
ENDBRANCH   2  11
ENDBRANCH   1   2
BRANCH   1  17
ATOM     17  C   UNL     1      11.727   9.368  16.837  1.00  0.00     0.088 C 
BRANCH  17  18
ATOM     18  N   UNL     1      11.122  10.181  15.763  1.00  0.00    -0.303 NA
ATOM     19  C   UNL     1      10.608  11.450  16.281  1.00  0.00     0.084 C 
ATOM     20  C   UNL     1      12.082  10.544  14.709  1.00  0.00     0.084 C 
ATOM     21  C   UNL     1      10.595  12.415  15.114  1.00  0.00     0.017 C 
ATOM     22  C   UNL     1      11.713  11.936  14.207  1.00  0.00     0.017 C 
ENDBRANCH  17  18
ENDBRANCH   1  17
TORSDOF 6
ENDMDL
MODEL 14
REMARK VINA RESULT:    -6.804      3.313      5.678
REMARK INTER + INTRA:         -10.724
REMARK INTER:                  -9.590
REMARK INTRA:                  -1.133
REMARK UNBOUND:                -1.733
REMARK SMILES OC(CCN1CCCC1)(c1ccccc1)C1CCCCC1
REMARK SMILES IDX 3 1 2 2 1 3 16 5 17 6 21 7 18 8 20 9 19 10 10 11 11 12 15 13
REMARK SMILES IDX 12 14 14 15 13 16 4 17 5 18 6 19 9 20 7 21 8 22
REMARK H PARENT 1 4
REMARK Flexibility Score: inf
ROOT
ATOM      1  C   UNL     1      13.085  10.249  18.941  1.00  0.00     0.056 C 
ENDROOT
BRANCH   1   2
ATOM      2  C   UNL     1      14.165  10.773  17.931  1.00  0.00     0.094 C 
BRANCH   2   3
ATOM      3  O   UNL     1      15.069   9.721  17.657  1.00  0.00    -0.385 OA
ATOM      4  H   UNL     1      15.208   9.668  16.677  1.00  0.00     0.211 HD
ENDBRANCH   2   3
BRANCH   2   5
ATOM      5  C   UNL     1      14.945  12.012  18.534  1.00  0.00     0.025 C 
ATOM      6  C   UNL     1      14.690  12.210  20.055  1.00  0.00     0.007 C 
ATOM      7  C   UNL     1      16.473  11.980  18.264  1.00  0.00     0.007 C 
ATOM      8  C   UNL     1      15.770  13.056  20.765  1.00  0.00     0.000 C 
ATOM      9  C   UNL     1      17.140  13.320  18.641  1.00  0.00     0.000 C 
ATOM     10  C   UNL     1      16.442  14.045  19.808  1.00  0.00     0.000 C 
ENDBRANCH   2   5
BRANCH   2  11
ATOM     11  C   UNL     1      13.416  11.181  16.646  1.00  0.00    -0.016 A 
ATOM     12  C   UNL     1      13.293  12.534  16.255  1.00  0.00     0.007 A 
ATOM     13  C   UNL     1      12.885  10.189  15.792  1.00  0.00     0.007 A 
ATOM     14  C   UNL     1      12.623  12.876  15.077  1.00  0.00     0.000 A 
ATOM     15  C   UNL     1      12.217  10.542  14.616  1.00  0.00     0.000 A 
ATOM     16  C   UNL     1      12.081  11.883  14.261  1.00  0.00     0.000 A 
ENDBRANCH   2  11
ENDBRANCH   1   2
BRANCH   1  17
ATOM     17  C   UNL     1      12.880   8.720  18.954  1.00  0.00     0.088 C 
BRANCH  17  18
ATOM     18  N   UNL     1      12.936   8.200  20.335  1.00  0.00    -0.303 NA
ATOM     19  C   UNL     1      14.164   7.441  20.570  1.00  0.00     0.084 C 
ATOM     20  C   UNL     1      12.931   9.267  21.348  1.00  0.00     0.084 C 
ATOM     21  C   UNL     1      14.423   7.495  22.061  1.00  0.00     0.017 C 
ATOM     22  C   UNL     1      13.802   8.803  22.511  1.00  0.00     0.017 C 
ENDBRANCH  17  18
ENDBRANCH   1  17
TORSDOF 6
ENDMDL
