MODEL 1
REMARK VINA RESULT:    -8.318      0.000      0.000
REMARK INTER + INTRA:         -16.625
REMARK INTER:                 -13.910
REMARK INTRA:                  -2.714
REMARK UNBOUND:                -2.714
REMARK SMILES CCOC(=O)[C@H](CCc1ccccc1)N[C@@H](C)C(=O)N1[C@H](C(=O)O)C[C@H]2CCCC[C@@H]21
REMARK SMILES IDX 16 1 17 2 18 3 19 4 20 5 26 6 25 7 31 8 27 9 21 10 30 11
REMARK SMILES IDX 28 12 29 13 22 14 23 15 24 16 15 18 6 20 7 21 8 22 9 23
REMARK SMILES IDX 10 24 14 25 11 26 13 27 12 28 4 29 5 30 3 31 2 32 1 33
REMARK H PARENT 24 17 15 19
REMARK Flexibility Score: inf
ROOT
ATOM      1  C   UNL     1      12.365   9.112  18.981  1.00  0.00     0.141 C 
ATOM      2  C   UNL     1      13.318   7.961  18.619  1.00  0.00     0.035 C 
ENDROOT
BRANCH   1   3
ATOM      3  C   UNL     1      11.075   8.961  18.223  1.00  0.00     0.240 C 
ATOM      4  O   UNL     1      10.599   7.812  18.018  1.00  0.00    -0.273 OA
BRANCH   3   5
ATOM      5  N   UNL     1      10.408  10.113  17.689  1.00  0.00    -0.324 N 
ATOM      6  C   UNL     1       9.913  11.997  16.410  1.00  0.00     0.014 C 
ATOM      7  C   UNL     1       9.352  12.270  17.796  1.00  0.00     0.043 C 
ATOM      8  C   UNL     1      10.998  10.975  16.677  1.00  0.00     0.089 C 
ATOM      9  C   UNL     1      10.485  13.166  15.608  1.00  0.00     0.006 C 
ATOM     10  C   UNL     1       9.454  10.891  18.487  1.00  0.00     0.195 C 
ATOM     11  C   UNL     1      11.405  10.320  15.354  1.00  0.00     0.025 C 
ATOM     12  C   UNL     1      10.992  12.620  14.255  1.00  0.00     0.000 C 
ATOM     13  C   UNL     1      11.956  11.418  14.413  1.00  0.00     0.002 C 
BRANCH  10  14
ATOM     14  C   UNL     1       8.129  10.186  18.535  1.00  0.00     0.326 C 
ATOM     15  O   UNL     1       7.745   9.485  17.559  1.00  0.00    -0.250 OA
BRANCH  14  16
ATOM     16  O   UNL     1       7.327  10.299  19.666  1.00  0.00    -0.480 OA
ATOM     17  H   UNL     1       6.943  11.193  19.944  1.00  0.00     0.296 HD
ENDBRANCH  14  16
ENDBRANCH  10  14
ENDBRANCH   3   5
ENDBRANCH   1   3
BRANCH   1  18
ATOM     18  N   UNL     1      12.064   9.150  20.425  1.00  0.00    -0.293 NA
ATOM     19  H   UNL     1      11.501   8.317  20.721  1.00  0.00     0.124 HD
BRANCH  18  20
ATOM     20  C   UNL     1      13.248   9.327  21.285  1.00  0.00     0.165 C 
BRANCH  20  21
ATOM     21  C   UNL     1      13.231  10.751  21.869  1.00  0.00     0.036 C 
BRANCH  21  22
ATOM     22  C   UNL     1      14.455  11.573  21.445  1.00  0.00     0.038 C 
BRANCH  22  23
ATOM     23  C   UNL     1      14.383  11.914  19.982  1.00  0.00    -0.048 A 
ATOM     24  C   UNL     1      15.283  11.333  19.072  1.00  0.00     0.004 A 
ATOM     25  C   UNL     1      13.381  12.775  19.503  1.00  0.00     0.004 A 
ATOM     26  C   UNL     1      15.200  11.633  17.708  1.00  0.00     0.000 A 
ATOM     27  C   UNL     1      13.301  13.072  18.139  1.00  0.00     0.000 A 
ATOM     28  C   UNL     1      14.211  12.504  17.243  1.00  0.00     0.000 A 
ENDBRANCH  22  23
ENDBRANCH  21  22
ENDBRANCH  20  21
BRANCH  20  29
ATOM     29  C   UNL     1      13.273   8.303  22.389  1.00  0.00     0.323 C 
ATOM     30  O   UNL     1      13.292   8.681  23.593  1.00  0.00    -0.250 OA
BRANCH  29  31
ATOM     31  O   UNL     1      13.268   6.941  22.072  1.00  0.00    -0.465 OA
BRANCH  31  32
ATOM     32  C   UNL     1      13.973   5.971  22.839  1.00  0.00     0.229 C 
ATOM     33  C   UNL     1      12.979   5.104  23.595  1.00  0.00     0.049 C 
ENDBRANCH  31  32
ENDBRANCH  29  31
ENDBRANCH  20  29
ENDBRANCH  18  20
ENDBRANCH   1  18
TORSDOF 12
ENDMDL
MODEL 2
REMARK VINA RESULT:    -8.168      1.737      3.255
REMARK INTER + INTRA:         -16.373
REMARK INTER:                 -14.078
REMARK INTRA:                  -2.295
REMARK UNBOUND:                -2.714
REMARK SMILES CCOC(=O)[C@H](CCc1ccccc1)N[C@@H](C)C(=O)N1[C@H](C(=O)O)C[C@H]2CCCC[C@@H]21
REMARK SMILES IDX 16 1 17 2 18 3 19 4 20 5 26 6 25 7 31 8 27 9 21 10 30 11
REMARK SMILES IDX 28 12 29 13 22 14 23 15 24 16 15 18 6 20 7 21 8 22 9 23
REMARK SMILES IDX 10 24 14 25 11 26 13 27 12 28 4 29 5 30 3 31 2 32 1 33
REMARK H PARENT 24 17 15 19
REMARK Flexibility Score: inf
ROOT
ATOM      1  C   UNL     1      10.394   9.641  19.466  1.00  0.00     0.141 C 
ATOM      2  C   UNL     1       9.134   9.980  20.280  1.00  0.00     0.035 C 
ENDROOT
BRANCH   1   3
ATOM      3  C   UNL     1      10.048   9.561  18.005  1.00  0.00     0.240 C 
ATOM      4  O   UNL     1       8.877   9.258  17.653  1.00  0.00    -0.273 OA
BRANCH   3   5
ATOM      5  N   UNL     1      11.056   9.781  17.007  1.00  0.00    -0.324 N 
ATOM      6  C   UNL     1      12.370  10.780  15.363  1.00  0.00     0.014 C 
ATOM      7  C   UNL     1      12.258   9.314  14.979  1.00  0.00     0.043 C 
ATOM      8  C   UNL     1      11.142  11.002  16.221  1.00  0.00     0.089 C 
ATOM      9  C   UNL     1      12.422  11.827  14.250  1.00  0.00     0.006 C 
ATOM     10  C   UNL     1      11.637   8.673  16.241  1.00  0.00     0.195 C 
ATOM     11  C   UNL     1      11.300  12.316  16.990  1.00  0.00     0.025 C 
ATOM     12  C   UNL     1      12.524  13.223  14.904  1.00  0.00     0.000 C 
ATOM     13  C   UNL     1      11.425  13.470  15.968  1.00  0.00     0.002 C 
BRANCH  10  14
ATOM     14  C   UNL     1      12.663   7.957  17.071  1.00  0.00     0.326 C 
ATOM     15  O   UNL     1      12.307   7.254  18.056  1.00  0.00    -0.250 OA
BRANCH  14  16
ATOM     16  O   UNL     1      14.011   8.063  16.745  1.00  0.00    -0.480 OA
ATOM     17  H   UNL     1      14.304   8.226  15.790  1.00  0.00     0.296 HD
ENDBRANCH  14  16
ENDBRANCH  10  14
ENDBRANCH   3   5
ENDBRANCH   1   3
BRANCH   1  18
ATOM     18  N   UNL     1      11.459  10.646  19.646  1.00  0.00    -0.293 NA
ATOM     19  H   UNL     1      11.167  11.397  20.318  1.00  0.00     0.124 HD
BRANCH  18  20
ATOM     20  C   UNL     1      12.769  10.080  20.016  1.00  0.00     0.165 C 
BRANCH  20  21
ATOM     21  C   UNL     1      13.856  11.143  19.777  1.00  0.00     0.036 C 
BRANCH  21  22
ATOM     22  C   UNL     1      14.570  10.959  18.432  1.00  0.00     0.038 C 
BRANCH  22  23
ATOM     23  C   UNL     1      15.393  12.174  18.099  1.00  0.00    -0.048 A 
ATOM     24  C   UNL     1      14.785  13.315  17.549  1.00  0.00     0.004 A 
ATOM     25  C   UNL     1      16.769  12.197  18.384  1.00  0.00     0.004 A 
ATOM     26  C   UNL     1      15.548  14.451  17.262  1.00  0.00     0.000 A 
ATOM     27  C   UNL     1      17.528  13.336  18.096  1.00  0.00     0.000 A 
ATOM     28  C   UNL     1      16.918  14.461  17.533  1.00  0.00     0.000 A 
ENDBRANCH  22  23
ENDBRANCH  21  22
ENDBRANCH  20  21
BRANCH  20  29
ATOM     29  C   UNL     1      12.778   9.628  21.453  1.00  0.00     0.323 C 
ATOM     30  O   UNL     1      12.475  10.444  22.367  1.00  0.00    -0.250 OA
BRANCH  29  31
ATOM     31  O   UNL     1      13.116   8.307  21.762  1.00  0.00    -0.465 OA
BRANCH  31  32
ATOM     32  C   UNL     1      14.091   7.572  21.030  1.00  0.00     0.229 C 
ATOM     33  C   UNL     1      15.004   6.838  21.998  1.00  0.00     0.049 C 
ENDBRANCH  31  32
ENDBRANCH  29  31
ENDBRANCH  20  29
ENDBRANCH  18  20
ENDBRANCH   1  18
TORSDOF 12
ENDMDL
MODEL 3
REMARK VINA RESULT:    -8.050      1.528      1.897
REMARK INTER + INTRA:         -16.176
REMARK INTER:                 -13.077
REMARK INTRA:                  -3.099
REMARK UNBOUND:                -2.714
REMARK SMILES CCOC(=O)[C@H](CCc1ccccc1)N[C@@H](C)C(=O)N1[C@H](C(=O)O)C[C@H]2CCCC[C@@H]21
REMARK SMILES IDX 16 1 17 2 18 3 19 4 20 5 26 6 25 7 31 8 27 9 21 10 30 11
REMARK SMILES IDX 28 12 29 13 22 14 23 15 24 16 15 18 6 20 7 21 8 22 9 23
REMARK SMILES IDX 10 24 14 25 11 26 13 27 12 28 4 29 5 30 3 31 2 32 1 33
REMARK H PARENT 24 17 15 19
REMARK Flexibility Score: inf
ROOT
ATOM      1  C   UNL     1      11.921   8.446  18.445  1.00  0.00     0.141 C 
ATOM      2  C   UNL     1      11.734   7.048  17.832  1.00  0.00     0.035 C 
ENDROOT
BRANCH   1   3
ATOM      3  C   UNL     1      10.698   9.282  18.185  1.00  0.00     0.240 C 
ATOM      4  O   UNL     1       9.591   8.723  17.962  1.00  0.00    -0.273 OA
BRANCH   3   5
ATOM      5  N   UNL     1      10.793  10.713  18.141  1.00  0.00    -0.324 N 
ATOM      6  C   UNL     1      11.451  12.877  17.580  1.00  0.00     0.014 C 
ATOM      7  C   UNL     1      11.117  12.910  19.063  1.00  0.00     0.043 C 
ATOM      8  C   UNL     1      11.779  11.419  17.338  1.00  0.00     0.089 C 
ATOM      9  C   UNL     1      12.590  13.759  17.067  1.00  0.00     0.006 C 
ATOM     10  C   UNL     1      10.423  11.547  19.290  1.00  0.00     0.195 C 
ATOM     11  C   UNL     1      11.772  11.149  15.830  1.00  0.00     0.025 C 
ATOM     12  C   UNL     1      12.727  13.532  15.545  1.00  0.00     0.000 C 
ATOM     13  C   UNL     1      12.855  12.035  15.169  1.00  0.00     0.002 C 
BRANCH  10  14
ATOM     14  C   UNL     1       8.930  11.682  19.366  1.00  0.00     0.326 C 
ATOM     15  O   UNL     1       8.248  11.822  18.314  1.00  0.00    -0.250 OA
BRANCH  14  16
ATOM     16  O   UNL     1       8.295  11.640  20.603  1.00  0.00    -0.480 OA
ATOM     17  H   UNL     1       8.490  10.899  21.263  1.00  0.00     0.296 HD
ENDBRANCH  14  16
ENDBRANCH  10  14
ENDBRANCH   3   5
ENDBRANCH   1   3
BRANCH   1  18
ATOM     18  N   UNL     1      12.153   8.387  19.901  1.00  0.00    -0.293 NA
ATOM     19  H   UNL     1      11.813   7.481  20.306  1.00  0.00     0.124 HD
BRANCH  18  20
ATOM     20  C   UNL     1      13.544   8.663  20.303  1.00  0.00     0.165 C 
BRANCH  20  21
ATOM     21  C   UNL     1      13.831  10.162  20.105  1.00  0.00     0.036 C 
BRANCH  21  22
ATOM     22  C   UNL     1      14.833  10.423  18.973  1.00  0.00     0.038 C 
BRANCH  22  23
ATOM     23  C   UNL     1      15.192  11.882  18.910  1.00  0.00    -0.048 A 
ATOM     24  C   UNL     1      14.780  12.760  19.928  1.00  0.00     0.004 A 
ATOM     25  C   UNL     1      15.987  12.372  17.859  1.00  0.00     0.004 A 
ATOM     26  C   UNL     1      15.135  14.112  19.879  1.00  0.00     0.000 A 
ATOM     27  C   UNL     1      16.340  13.725  17.815  1.00  0.00     0.000 A 
ATOM     28  C   UNL     1      15.911  14.594  18.823  1.00  0.00     0.000 A 
ENDBRANCH  22  23
ENDBRANCH  21  22
ENDBRANCH  20  21
BRANCH  20  29
ATOM     29  C   UNL     1      13.784   8.263  21.736  1.00  0.00     0.323 C 
ATOM     30  O   UNL     1      14.518   8.979  22.471  1.00  0.00    -0.250 OA
BRANCH  29  31
ATOM     31  O   UNL     1      13.185   7.104  22.241  1.00  0.00    -0.465 OA
BRANCH  31  32
ATOM     32  C   UNL     1      13.938   6.029  22.791  1.00  0.00     0.229 C 
ATOM     33  C   UNL     1      13.027   5.152  23.635  1.00  0.00     0.049 C 
ENDBRANCH  31  32
ENDBRANCH  29  31
ENDBRANCH  20  29
ENDBRANCH  18  20
ENDBRANCH   1  18
TORSDOF 12
ENDMDL
MODEL 4
REMARK VINA RESULT:    -7.966      2.707      7.066
REMARK INTER + INTRA:         -16.036
REMARK INTER:                 -12.981
REMARK INTRA:                  -3.055
REMARK UNBOUND:                -2.714
REMARK SMILES CCOC(=O)[C@H](CCc1ccccc1)N[C@@H](C)C(=O)N1[C@H](C(=O)O)C[C@H]2CCCC[C@@H]21
REMARK SMILES IDX 16 1 17 2 18 3 19 4 20 5 26 6 25 7 31 8 27 9 21 10 30 11
REMARK SMILES IDX 28 12 29 13 22 14 23 15 24 16 15 18 6 20 7 21 8 22 9 23
REMARK SMILES IDX 10 24 14 25 11 26 13 27 12 28 4 29 5 30 3 31 2 32 1 33
REMARK H PARENT 24 17 15 19
REMARK Flexibility Score: inf
ROOT
ATOM      1  C   UNL     1      11.018  13.614  17.412  1.00  0.00     0.141 C 
ATOM      2  C   UNL     1      11.285  15.118  17.588  1.00  0.00     0.035 C 
ENDROOT
BRANCH   1   3
ATOM      3  C   UNL     1      10.176  13.111  18.551  1.00  0.00     0.240 C 
ATOM      4  O   UNL     1       9.374  13.892  19.131  1.00  0.00    -0.273 OA
BRANCH   3   5
ATOM      5  N   UNL     1      10.313  11.760  19.015  1.00  0.00    -0.324 N 
ATOM      6  C   UNL     1      11.230   9.758  19.775  1.00  0.00     0.014 C 
ATOM      7  C   UNL     1      10.051   9.374  18.896  1.00  0.00     0.043 C 
ATOM      8  C   UNL     1      11.602  11.134  19.264  1.00  0.00     0.089 C 
ATOM      9  C   UNL     1      12.464   8.855  19.782  1.00  0.00     0.006 C 
ATOM     10  C   UNL     1       9.332  10.724  18.674  1.00  0.00     0.195 C 
ATOM     11  C   UNL     1      12.523  11.813  20.282  1.00  0.00     0.025 C 
ATOM     12  C   UNL     1      13.508   9.470  20.739  1.00  0.00     0.000 C 
ATOM     13  C   UNL     1      13.804  10.959  20.430  1.00  0.00     0.002 C 
BRANCH  10  14
ATOM     14  C   UNL     1       8.116  10.864  19.544  1.00  0.00     0.326 C 
ATOM     15  O   UNL     1       7.031  10.313  19.214  1.00  0.00    -0.250 OA
BRANCH  14  16
ATOM     16  O   UNL     1       8.192  11.594  20.725  1.00  0.00    -0.480 OA
ATOM     17  H   UNL     1       8.862  11.354  21.444  1.00  0.00     0.296 HD
ENDBRANCH  14  16
ENDBRANCH  10  14
ENDBRANCH   3   5
ENDBRANCH   1   3
BRANCH   1  18
ATOM     18  N   UNL     1      10.325  13.318  16.144  1.00  0.00    -0.293 NA
ATOM     19  H   UNL     1       9.322  13.623  16.176  1.00  0.00     0.124 HD
BRANCH  18  20
ATOM     20  C   UNL     1      11.004  13.845  14.946  1.00  0.00     0.165 C 
BRANCH  20  21
ATOM     21  C   UNL     1      11.858  12.724  14.326  1.00  0.00     0.036 C 
BRANCH  21  22
ATOM     22  C   UNL     1      11.338  11.325  14.683  1.00  0.00     0.038 C 
BRANCH  22  23
ATOM     23  C   UNL     1      12.390  10.542  15.419  1.00  0.00    -0.048 A 
ATOM     24  C   UNL     1      13.378  11.207  16.166  1.00  0.00     0.004 A 
ATOM     25  C   UNL     1      12.364   9.137  15.410  1.00  0.00     0.004 A 
ATOM     26  C   UNL     1      14.342  10.477  16.869  1.00  0.00     0.000 A 
ATOM     27  C   UNL     1      13.330   8.411  16.115  1.00  0.00     0.000 A 
ATOM     28  C   UNL     1      14.319   9.080  16.841  1.00  0.00     0.000 A 
ENDBRANCH  22  23
ENDBRANCH  21  22
ENDBRANCH  20  21
BRANCH  20  29
ATOM     29  C   UNL     1      10.009  14.368  13.944  1.00  0.00     0.323 C 
ATOM     30  O   UNL     1       8.807  14.544  14.289  1.00  0.00    -0.250 OA
BRANCH  29  31
ATOM     31  O   UNL     1      10.425  14.661  12.642  1.00  0.00    -0.465 OA
BRANCH  31  32
ATOM     32  C   UNL     1       9.929  13.965  11.502  1.00  0.00     0.229 C 
ATOM     33  C   UNL     1      11.090  13.337  10.749  1.00  0.00     0.049 C 
ENDBRANCH  31  32
ENDBRANCH  29  31
ENDBRANCH  20  29
ENDBRANCH  18  20
ENDBRANCH   1  18
TORSDOF 12
ENDMDL
MODEL 5
REMARK VINA RESULT:    -7.963      2.724      6.989
REMARK INTER + INTRA:         -16.030
REMARK INTER:                 -12.960
REMARK INTRA:                  -3.070
REMARK UNBOUND:                -2.714
REMARK SMILES CCOC(=O)[C@H](CCc1ccccc1)N[C@@H](C)C(=O)N1[C@H](C(=O)O)C[C@H]2CCCC[C@@H]21
REMARK SMILES IDX 16 1 17 2 18 3 19 4 20 5 26 6 25 7 31 8 27 9 21 10 30 11
REMARK SMILES IDX 28 12 29 13 22 14 23 15 24 16 15 18 6 20 7 21 8 22 9 23
REMARK SMILES IDX 10 24 14 25 11 26 13 27 12 28 4 29 5 30 3 31 2 32 1 33
REMARK H PARENT 24 17 15 19
REMARK Flexibility Score: inf
ROOT
ATOM      1  C   UNL     1      10.949  13.652  17.411  1.00  0.00     0.141 C 
ATOM      2  C   UNL     1      11.155  15.167  17.579  1.00  0.00     0.035 C 
ENDROOT
BRANCH   1   3
ATOM      3  C   UNL     1      10.130  13.120  18.555  1.00  0.00     0.240 C 
ATOM      4  O   UNL     1       9.352  13.890  19.180  1.00  0.00    -0.273 OA
BRANCH   3   5
ATOM      5  N   UNL     1      10.265  11.754  18.971  1.00  0.00    -0.324 N 
ATOM      6  C   UNL     1      11.180   9.720  19.643  1.00  0.00     0.014 C 
ATOM      7  C   UNL     1       9.974   9.375  18.784  1.00  0.00     0.043 C 
ATOM      8  C   UNL     1      11.553  11.107  19.166  1.00  0.00     0.089 C 
ATOM      9  C   UNL     1      12.404   8.804  19.588  1.00  0.00     0.006 C 
ATOM     10  C   UNL     1       9.265  10.740  18.624  1.00  0.00     0.195 C 
ATOM     11  C   UNL     1      12.508  11.744  20.180  1.00  0.00     0.025 C 
ATOM     12  C   UNL     1      13.479   9.378  20.536  1.00  0.00     0.000 C 
ATOM     13  C   UNL     1      13.783  10.873  20.267  1.00  0.00     0.002 C 
BRANCH  10  14
ATOM     14  C   UNL     1       8.073  10.863  19.530  1.00  0.00     0.326 C 
ATOM     15  O   UNL     1       6.983  10.307  19.227  1.00  0.00    -0.250 OA
BRANCH  14  16
ATOM     16  O   UNL     1       8.178  11.585  20.714  1.00  0.00    -0.480 OA
ATOM     17  H   UNL     1       9.041  11.596  21.242  1.00  0.00     0.296 HD
ENDBRANCH  14  16
ENDBRANCH  10  14
ENDBRANCH   3   5
ENDBRANCH   1   3
BRANCH   1  18
ATOM     18  N   UNL     1      10.265  13.322  16.146  1.00  0.00    -0.293 NA
ATOM     19  H   UNL     1       9.250  13.583  16.180  1.00  0.00     0.124 HD
BRANCH  18  20
ATOM     20  C   UNL     1      10.917  13.873  14.944  1.00  0.00     0.165 C 
BRANCH  20  21
ATOM     21  C   UNL     1      11.693  12.746  14.239  1.00  0.00     0.036 C 
BRANCH  21  22
ATOM     22  C   UNL     1      11.184  11.351  14.628  1.00  0.00     0.038 C 
BRANCH  22  23
ATOM     23  C   UNL     1      12.263  10.571  15.328  1.00  0.00    -0.048 A 
ATOM     24  C   UNL     1      13.252  11.237  16.073  1.00  0.00     0.004 A 
ATOM     25  C   UNL     1      12.261   9.166  15.288  1.00  0.00     0.004 A 
ATOM     26  C   UNL     1      14.240  10.508  16.742  1.00  0.00     0.000 A 
ATOM     27  C   UNL     1      13.251   8.441  15.960  1.00  0.00     0.000 A 
ATOM     28  C   UNL     1      14.242   9.112  16.684  1.00  0.00     0.000 A 
ENDBRANCH  22  23
ENDBRANCH  21  22
ENDBRANCH  20  21
BRANCH  20  29
ATOM     29  C   UNL     1       9.906  14.483  14.010  1.00  0.00     0.323 C 
ATOM     30  O   UNL     1       9.728  13.982  12.865  1.00  0.00    -0.250 OA
BRANCH  29  31
ATOM     31  O   UNL     1       9.166  15.597  14.421  1.00  0.00    -0.465 OA
BRANCH  31  32
ATOM     32  C   UNL     1       7.747  15.657  14.317  1.00  0.00     0.229 C 
ATOM     33  C   UNL     1       7.128  14.625  15.244  1.00  0.00     0.049 C 
ENDBRANCH  31  32
ENDBRANCH  29  31
ENDBRANCH  20  29
ENDBRANCH  18  20
ENDBRANCH   1  18
TORSDOF 12
ENDMDL
MODEL 6
REMARK VINA RESULT:    -7.905      1.515      1.954
REMARK INTER + INTRA:         -15.934
REMARK INTER:                 -13.410
REMARK INTRA:                  -2.524
REMARK UNBOUND:                -2.714
REMARK SMILES CCOC(=O)[C@H](CCc1ccccc1)N[C@@H](C)C(=O)N1[C@H](C(=O)O)C[C@H]2CCCC[C@@H]21
REMARK SMILES IDX 16 1 17 2 18 3 19 4 20 5 26 6 25 7 31 8 27 9 21 10 30 11
REMARK SMILES IDX 28 12 29 13 22 14 23 15 24 16 15 18 6 20 7 21 8 22 9 23
REMARK SMILES IDX 10 24 14 25 11 26 13 27 12 28 4 29 5 30 3 31 2 32 1 33
REMARK H PARENT 24 17 15 19
REMARK Flexibility Score: inf
ROOT
ATOM      1  C   UNL     1      13.318   9.157  17.333  1.00  0.00     0.141 C 
ATOM      2  C   UNL     1      13.929   8.709  15.995  1.00  0.00     0.035 C 
ENDROOT
BRANCH   1   3
ATOM      3  C   UNL     1      11.823   9.001  17.285  1.00  0.00     0.240 C 
ATOM      4  O   UNL     1      11.312   7.849  17.270  1.00  0.00    -0.273 OA
BRANCH   3   5
ATOM      5  N   UNL     1      10.975  10.156  17.208  1.00  0.00    -0.324 N 
ATOM      6  C   UNL     1      10.048  12.188  16.543  1.00  0.00     0.014 C 
ATOM      7  C   UNL     1       9.883  12.124  18.053  1.00  0.00     0.043 C 
ATOM      8  C   UNL     1      11.215  11.257  16.288  1.00  0.00     0.089 C 
ATOM      9  C   UNL     1      10.313  13.545  15.892  1.00  0.00     0.006 C 
ATOM     10  C   UNL     1      10.245  10.657  18.377  1.00  0.00     0.195 C 
ATOM     11  C   UNL     1      11.268  10.920  14.796  1.00  0.00     0.025 C 
ATOM     12  C   UNL     1      10.449  13.331  14.368  1.00  0.00     0.000 C 
ATOM     13  C   UNL     1      11.478  12.232  14.004  1.00  0.00     0.002 C 
BRANCH  10  14
ATOM     14  C   UNL     1       9.023   9.817  18.617  1.00  0.00     0.326 C 
ATOM     15  O   UNL     1       8.494   9.775  19.761  1.00  0.00    -0.250 OA
BRANCH  14  16
ATOM     16  O   UNL     1       8.466   9.092  17.569  1.00  0.00    -0.480 OA
ATOM     17  H   UNL     1       8.027   9.561  16.787  1.00  0.00     0.296 HD
ENDBRANCH  14  16
ENDBRANCH  10  14
ENDBRANCH   3   5
ENDBRANCH   1   3
BRANCH   1  18
ATOM     18  N   UNL     1      13.839   8.374  18.470  1.00  0.00    -0.293 NA
ATOM     19  H   UNL     1      14.542   7.663  18.156  1.00  0.00     0.124 HD
BRANCH  18  20
ATOM     20  C   UNL     1      14.366   9.194  19.576  1.00  0.00     0.165 C 
BRANCH  20  21
ATOM     21  C   UNL     1      14.229  10.681  19.203  1.00  0.00     0.036 C 
BRANCH  21  22
ATOM     22  C   UNL     1      15.563  11.301  18.766  1.00  0.00     0.038 C 
BRANCH  22  23
ATOM     23  C   UNL     1      15.329  12.584  18.016  1.00  0.00    -0.048 A 
ATOM     24  C   UNL     1      16.342  13.555  17.936  1.00  0.00     0.004 A 
ATOM     25  C   UNL     1      14.114  12.800  17.344  1.00  0.00     0.004 A 
ATOM     26  C   UNL     1      16.131  14.737  17.219  1.00  0.00     0.000 A 
ATOM     27  C   UNL     1      13.907  13.984  16.627  1.00  0.00     0.000 A 
ATOM     28  C   UNL     1      14.914  14.952  16.567  1.00  0.00     0.000 A 
ENDBRANCH  22  23
ENDBRANCH  21  22
ENDBRANCH  20  21
BRANCH  20  29
ATOM     29  C   UNL     1      13.638   8.902  20.862  1.00  0.00     0.323 C 
ATOM     30  O   UNL     1      12.398   9.121  20.943  1.00  0.00    -0.250 OA
BRANCH  29  31
ATOM     31  O   UNL     1      14.342   8.384  21.955  1.00  0.00    -0.465 OA
BRANCH  31  32
ATOM     32  C   UNL     1      14.725   7.016  22.042  1.00  0.00     0.229 C 
ATOM     33  C   UNL     1      13.676   6.245  22.827  1.00  0.00     0.049 C 
ENDBRANCH  31  32
ENDBRANCH  29  31
ENDBRANCH  20  29
ENDBRANCH  18  20
ENDBRANCH   1  18
TORSDOF 12
ENDMDL
MODEL 7
REMARK VINA RESULT:    -7.781      2.394      4.728
REMARK INTER + INTRA:         -15.727
REMARK INTER:                 -13.419
REMARK INTRA:                  -2.308
REMARK UNBOUND:                -2.714
REMARK SMILES CCOC(=O)[C@H](CCc1ccccc1)N[C@@H](C)C(=O)N1[C@H](C(=O)O)C[C@H]2CCCC[C@@H]21
REMARK SMILES IDX 16 1 17 2 18 3 19 4 20 5 26 6 25 7 31 8 27 9 21 10 30 11
REMARK SMILES IDX 28 12 29 13 22 14 23 15 24 16 15 18 6 20 7 21 8 22 9 23
REMARK SMILES IDX 10 24 14 25 11 26 13 27 12 28 4 29 5 30 3 31 2 32 1 33
REMARK H PARENT 24 17 15 19
REMARK Flexibility Score: inf
ROOT
ATOM      1  C   UNL     1      13.428  10.172  20.523  1.00  0.00     0.141 C 
ATOM      2  C   UNL     1      14.063   9.960  21.907  1.00  0.00     0.035 C 
ENDROOT
BRANCH   1   3
ATOM      3  C   UNL     1      11.929  10.130  20.639  1.00  0.00     0.240 C 
ATOM      4  O   UNL     1      11.392   9.959  21.766  1.00  0.00    -0.273 OA
BRANCH   3   5
ATOM      5  N   UNL     1      11.107  10.233  19.468  1.00  0.00    -0.324 N 
ATOM      6  C   UNL     1       9.749  11.088  17.779  1.00  0.00     0.014 C 
ATOM      7  C   UNL     1       9.245   9.679  18.052  1.00  0.00     0.043 C 
ATOM      8  C   UNL     1      10.434  11.461  19.076  1.00  0.00     0.089 C 
ATOM      9  C   UNL     1       8.735  12.167  17.397  1.00  0.00     0.006 C 
ATOM     10  C   UNL     1      10.353   9.086  18.952  1.00  0.00     0.195 C 
ATOM     11  C   UNL     1      11.313  12.693  18.840  1.00  0.00     0.025 C 
ATOM     12  C   UNL     1       9.499  13.493  17.186  1.00  0.00     0.000 C 
ATOM     13  C   UNL     1      10.407  13.861  18.385  1.00  0.00     0.002 C 
BRANCH  10  14
ATOM     14  C   UNL     1      11.267   8.172  18.188  1.00  0.00     0.326 C 
ATOM     15  O   UNL     1      12.438   7.952  18.601  1.00  0.00    -0.250 OA
BRANCH  14  16
ATOM     16  O   UNL     1      10.815   7.558  17.024  1.00  0.00    -0.480 OA
ATOM     17  H   UNL     1      11.204   6.675  16.717  1.00  0.00     0.296 HD
ENDBRANCH  14  16
ENDBRANCH  10  14
ENDBRANCH   3   5
ENDBRANCH   1   3
BRANCH   1  18
ATOM     18  N   UNL     1      13.820  11.463  19.925  1.00  0.00    -0.293 NA
ATOM     19  H   UNL     1      13.599  12.264  20.565  1.00  0.00     0.124 HD
BRANCH  18  20
ATOM     20  C   UNL     1      15.220  11.517  19.466  1.00  0.00     0.165 C 
BRANCH  20  21
ATOM     21  C   UNL     1      15.236  11.615  17.930  1.00  0.00     0.036 C 
BRANCH  21  22
ATOM     22  C   UNL     1      14.564  10.410  17.258  1.00  0.00     0.038 C 
BRANCH  22  23
ATOM     23  C   UNL     1      13.500  10.866  16.297  1.00  0.00    -0.048 A 
ATOM     24  C   UNL     1      13.295  12.237  16.062  1.00  0.00     0.004 A 
ATOM     25  C   UNL     1      12.739   9.924  15.585  1.00  0.00     0.004 A 
ATOM     26  C   UNL     1      12.322  12.657  15.150  1.00  0.00     0.000 A 
ATOM     27  C   UNL     1      11.766  10.350  14.673  1.00  0.00     0.000 A 
ATOM     28  C   UNL     1      11.556  11.715  14.458  1.00  0.00     0.000 A 
ENDBRANCH  22  23
ENDBRANCH  21  22
ENDBRANCH  20  21
BRANCH  20  29
ATOM     29  C   UNL     1      15.946  12.686  20.079  1.00  0.00     0.323 C 
ATOM     30  O   UNL     1      15.663  13.053  21.252  1.00  0.00    -0.250 OA
BRANCH  29  31
ATOM     31  O   UNL     1      16.933  13.351  19.344  1.00  0.00    -0.465 OA
BRANCH  31  32
ATOM     32  C   UNL     1      18.318  13.265  19.665  1.00  0.00     0.229 C 
ATOM     33  C   UNL     1      19.090  12.781  18.448  1.00  0.00     0.049 C 
ENDBRANCH  31  32
ENDBRANCH  29  31
ENDBRANCH  20  29
ENDBRANCH  18  20
ENDBRANCH   1  18
TORSDOF 12
ENDMDL
MODEL 8
REMARK VINA RESULT:    -7.762      2.228      6.582
REMARK INTER + INTRA:         -15.695
REMARK INTER:                 -12.472
REMARK INTRA:                  -3.223
REMARK UNBOUND:                -2.714
REMARK SMILES CCOC(=O)[C@H](CCc1ccccc1)N[C@@H](C)C(=O)N1[C@H](C(=O)O)C[C@H]2CCCC[C@@H]21
REMARK SMILES IDX 16 1 17 2 18 3 19 4 20 5 26 6 25 7 31 8 27 9 21 10 30 11
REMARK SMILES IDX 28 12 29 13 22 14 23 15 24 16 15 18 6 20 7 21 8 22 9 23
REMARK SMILES IDX 10 24 14 25 11 26 13 27 12 28 4 29 5 30 3 31 2 32 1 33
REMARK H PARENT 24 17 15 19
REMARK Flexibility Score: inf
ROOT
ATOM      1  C   UNL     1      10.151  11.313  17.345  1.00  0.00     0.141 C 
ATOM      2  C   UNL     1       8.734  11.910  17.375  1.00  0.00     0.035 C 
ENDROOT
BRANCH   1   3
ATOM      3  C   UNL     1      10.103   9.869  17.761  1.00  0.00     0.240 C 
ATOM      4  O   UNL     1       9.010   9.242  17.722  1.00  0.00    -0.273 OA
BRANCH   3   5
ATOM      5  N   UNL     1      11.282   9.213  18.247  1.00  0.00    -0.324 N 
ATOM      6  C   UNL     1      13.164   8.685  19.515  1.00  0.00     0.014 C 
ATOM      7  C   UNL     1      13.504   8.310  18.082  1.00  0.00     0.043 C 
ATOM      8  C   UNL     1      12.082   9.730  19.347  1.00  0.00     0.089 C 
ATOM      9  C   UNL     1      14.276   9.227  20.414  1.00  0.00     0.006 C 
ATOM     10  C   UNL     1      12.137   8.410  17.366  1.00  0.00     0.195 C 
ATOM     11  C   UNL     1      11.373   9.936  20.688  1.00  0.00     0.025 C 
ATOM     12  C   UNL     1      13.669   9.536  21.800  1.00  0.00     0.000 C 
ATOM     13  C   UNL     1      12.411  10.436  21.720  1.00  0.00     0.002 C 
BRANCH  10  14
ATOM     14  C   UNL     1      11.520   7.060  17.143  1.00  0.00     0.326 C 
ATOM     15  O   UNL     1      10.987   6.436  18.100  1.00  0.00    -0.250 OA
BRANCH  14  16
ATOM     16  O   UNL     1      11.526   6.501  15.869  1.00  0.00    -0.480 OA
ATOM     17  H   UNL     1      11.638   7.080  15.047  1.00  0.00     0.296 HD
ENDBRANCH  14  16
ENDBRANCH  10  14
ENDBRANCH   3   5
ENDBRANCH   1   3
BRANCH   1  18
ATOM     18  N   UNL     1      10.762  11.400  16.005  1.00  0.00    -0.293 NA
ATOM     19  H   UNL     1      10.148  10.964  15.275  1.00  0.00     0.124 HD
BRANCH  18  20
ATOM     20  C   UNL     1      11.172  12.761  15.614  1.00  0.00     0.165 C 
BRANCH  20  21
ATOM     21  C   UNL     1      12.709  12.823  15.566  1.00  0.00     0.036 C 
BRANCH  21  22
ATOM     22  C   UNL     1      13.366  11.598  16.216  1.00  0.00     0.038 C 
BRANCH  22  23
ATOM     23  C   UNL     1      14.068  11.986  17.488  1.00  0.00    -0.048 A 
ATOM     24  C   UNL     1      15.390  11.570  17.725  1.00  0.00     0.004 A 
ATOM     25  C   UNL     1      13.428  12.813  18.427  1.00  0.00     0.004 A 
ATOM     26  C   UNL     1      16.049  11.951  18.898  1.00  0.00     0.000 A 
ATOM     27  C   UNL     1      14.092  13.192  19.598  1.00  0.00     0.000 A 
ATOM     28  C   UNL     1      15.400  12.759  19.835  1.00  0.00     0.000 A 
ENDBRANCH  22  23
ENDBRANCH  21  22
ENDBRANCH  20  21
BRANCH  20  29
ATOM     29  C   UNL     1      10.585  13.142  14.280  1.00  0.00     0.323 C 
ATOM     30  O   UNL     1       9.605  13.936  14.231  1.00  0.00    -0.250 OA
BRANCH  29  31
ATOM     31  O   UNL     1      11.134  12.616  13.106  1.00  0.00    -0.465 OA
BRANCH  31  32
ATOM     32  C   UNL     1      11.602  13.439  12.042  1.00  0.00     0.229 C 
ATOM     33  C   UNL     1      12.979  12.966  11.605  1.00  0.00     0.049 C 
ENDBRANCH  31  32
ENDBRANCH  29  31
ENDBRANCH  20  29
ENDBRANCH  18  20
ENDBRANCH   1  18
TORSDOF 12
ENDMDL
MODEL 9
REMARK VINA RESULT:    -7.748      2.527      5.254
REMARK INTER + INTRA:         -15.672
REMARK INTER:                 -13.340
REMARK INTRA:                  -2.332
REMARK UNBOUND:                -2.714
REMARK SMILES CCOC(=O)[C@H](CCc1ccccc1)N[C@@H](C)C(=O)N1[C@H](C(=O)O)C[C@H]2CCCC[C@@H]21
REMARK SMILES IDX 16 1 17 2 18 3 19 4 20 5 26 6 25 7 31 8 27 9 21 10 30 11
REMARK SMILES IDX 28 12 29 13 22 14 23 15 24 16 15 18 6 20 7 21 8 22 9 23
REMARK SMILES IDX 10 24 14 25 11 26 13 27 12 28 4 29 5 30 3 31 2 32 1 33
REMARK H PARENT 24 17 15 19
REMARK Flexibility Score: inf
ROOT
ATOM      1  C   UNL     1      11.298   8.836  17.313  1.00  0.00     0.141 C 
ATOM      2  C   UNL     1      11.417   7.318  17.094  1.00  0.00     0.035 C 
ENDROOT
BRANCH   1   3
ATOM      3  C   UNL     1      11.737   9.563  16.072  1.00  0.00     0.240 C 
ATOM      4  O   UNL     1      11.705   8.977  14.957  1.00  0.00    -0.273 OA
BRANCH   3   5
ATOM      5  N   UNL     1      12.240  10.905  16.157  1.00  0.00    -0.324 N 
ATOM      6  C   UNL     1      13.477  12.775  16.788  1.00  0.00     0.014 C 
ATOM      7  C   UNL     1      12.076  13.281  16.482  1.00  0.00     0.043 C 
ATOM      8  C   UNL     1      13.247  11.316  17.122  1.00  0.00     0.089 C 
ATOM      9  C   UNL     1      14.269  13.446  17.910  1.00  0.00     0.006 C 
ATOM     10  C   UNL     1      11.411  12.062  15.803  1.00  0.00     0.195 C 
ATOM     11  C   UNL     1      14.588  10.578  17.087  1.00  0.00     0.025 C 
ATOM     12  C   UNL     1      15.640  12.744  18.020  1.00  0.00     0.000 C 
ATOM     13  C   UNL     1      15.520  11.205  18.151  1.00  0.00     0.002 C 
BRANCH  10  14
ATOM     14  C   UNL     1      11.352  12.214  14.310  1.00  0.00     0.326 C 
ATOM     15  O   UNL     1      10.423  12.877  13.773  1.00  0.00    -0.250 OA
BRANCH  14  16
ATOM     16  O   UNL     1      12.334  11.629  13.517  1.00  0.00    -0.480 OA
ATOM     17  H   UNL     1      12.979  12.197  12.984  1.00  0.00     0.296 HD
ENDBRANCH  14  16
ENDBRANCH  10  14
ENDBRANCH   3   5
ENDBRANCH   1   3
BRANCH   1  18
ATOM     18  N   UNL     1       9.917   9.243  17.636  1.00  0.00    -0.293 NA
ATOM     19  H   UNL     1       9.337   8.423  17.937  1.00  0.00     0.124 HD
BRANCH  18  20
ATOM     20  C   UNL     1       9.825  10.348  18.608  1.00  0.00     0.165 C 
BRANCH  20  21
ATOM     21  C   UNL     1       8.706  11.307  18.164  1.00  0.00     0.036 C 
BRANCH  21  22
ATOM     22  C   UNL     1       8.852  12.705  18.781  1.00  0.00     0.038 C 
BRANCH  22  23
ATOM     23  C   UNL     1       8.283  13.751  17.862  1.00  0.00    -0.048 A 
ATOM     24  C   UNL     1       8.210  13.516  16.478  1.00  0.00     0.004 A 
ATOM     25  C   UNL     1       7.772  14.951  18.384  1.00  0.00     0.004 A 
ATOM     26  C   UNL     1       7.660  14.481  15.628  1.00  0.00     0.000 A 
ATOM     27  C   UNL     1       7.222  15.913  17.530  1.00  0.00     0.000 A 
ATOM     28  C   UNL     1       7.168  15.679  16.153  1.00  0.00     0.000 A 
ENDBRANCH  22  23
ENDBRANCH  21  22
ENDBRANCH  20  21
BRANCH  20  29
ATOM     29  C   UNL     1       9.557   9.828  19.996  1.00  0.00     0.323 C 
ATOM     30  O   UNL     1       8.486   9.204  20.234  1.00  0.00    -0.250 OA
BRANCH  29  31
ATOM     31  O   UNL     1      10.500  10.036  21.008  1.00  0.00    -0.465 OA
BRANCH  31  32
ATOM     32  C   UNL     1      11.893  10.168  20.744  1.00  0.00     0.229 C 
ATOM     33  C   UNL     1      12.665  10.086  22.050  1.00  0.00     0.049 C 
ENDBRANCH  31  32
ENDBRANCH  29  31
ENDBRANCH  20  29
ENDBRANCH  18  20
ENDBRANCH   1  18
TORSDOF 12
ENDMDL
MODEL 10
REMARK VINA RESULT:    -7.653      2.690      7.365
REMARK INTER + INTRA:         -15.512
REMARK INTER:                 -13.780
REMARK INTRA:                  -1.732
REMARK UNBOUND:                -2.714
REMARK SMILES CCOC(=O)[C@H](CCc1ccccc1)N[C@@H](C)C(=O)N1[C@H](C(=O)O)C[C@H]2CCCC[C@@H]21
REMARK SMILES IDX 16 1 17 2 18 3 19 4 20 5 26 6 25 7 31 8 27 9 21 10 30 11
REMARK SMILES IDX 28 12 29 13 22 14 23 15 24 16 15 18 6 20 7 21 8 22 9 23
REMARK SMILES IDX 10 24 14 25 11 26 13 27 12 28 4 29 5 30 3 31 2 32 1 33
REMARK H PARENT 24 17 15 19
REMARK Flexibility Score: inf
ROOT
ATOM      1  C   UNL     1       9.692  11.077  17.617  1.00  0.00     0.141 C 
ATOM      2  C   UNL     1       8.248  10.667  17.950  1.00  0.00     0.035 C 
ENDROOT
BRANCH   1   3
ATOM      3  C   UNL     1      10.568   9.857  17.569  1.00  0.00     0.240 C 
ATOM      4  O   UNL     1      10.057   8.726  17.348  1.00  0.00    -0.273 OA
BRANCH   3   5
ATOM      5  N   UNL     1      11.977   9.963  17.821  1.00  0.00    -0.324 N 
ATOM      6  C   UNL     1      14.020  10.332  18.878  1.00  0.00     0.014 C 
ATOM      7  C   UNL     1      14.210  10.765  17.433  1.00  0.00     0.043 C 
ATOM      8  C   UNL     1      12.524  10.454  19.076  1.00  0.00     0.089 C 
ATOM      9  C   UNL     1      14.754  11.103  19.975  1.00  0.00     0.006 C 
ATOM     10  C   UNL     1      12.935  10.227  16.742  1.00  0.00     0.195 C 
ATOM     11  C   UNL     1      12.126   9.705  20.350  1.00  0.00     0.025 C 
ATOM     12  C   UNL     1      14.385  10.475  21.337  1.00  0.00     0.000 C 
ATOM     13  C   UNL     1      12.855  10.355  21.550  1.00  0.00     0.002 C 
BRANCH  10  14
ATOM     14  C   UNL     1      13.203   8.965  15.974  1.00  0.00     0.326 C 
ATOM     15  O   UNL     1      12.786   8.840  14.790  1.00  0.00    -0.250 OA
BRANCH  14  16
ATOM     16  O   UNL     1      13.923   7.934  16.568  1.00  0.00    -0.480 OA
ATOM     17  H   UNL     1      13.477   7.057  16.805  1.00  0.00     0.296 HD
ENDBRANCH  14  16
ENDBRANCH  10  14
ENDBRANCH   3   5
ENDBRANCH   1   3
BRANCH   1  18
ATOM     18  N   UNL     1       9.784  11.778  16.321  1.00  0.00    -0.293 NA
ATOM     19  H   UNL     1       8.880  11.728  15.793  1.00  0.00     0.124 HD
BRANCH  18  20
ATOM     20  C   UNL     1      10.270  13.167  16.418  1.00  0.00     0.165 C 
BRANCH  20  21
ATOM     21  C   UNL     1      11.044  13.513  15.134  1.00  0.00     0.036 C 
BRANCH  21  22
ATOM     22  C   UNL     1      10.929  12.417  14.066  1.00  0.00     0.038 C 
BRANCH  22  23
ATOM     23  C   UNL     1      11.615  12.842  12.796  1.00  0.00    -0.048 A 
ATOM     24  C   UNL     1      10.879  13.001  11.610  1.00  0.00     0.004 A 
ATOM     25  C   UNL     1      12.990  13.134  12.798  1.00  0.00     0.004 A 
ATOM     26  C   UNL     1      11.515  13.418  10.436  1.00  0.00     0.000 A 
ATOM     27  C   UNL     1      13.622  13.551  11.621  1.00  0.00     0.000 A 
ATOM     28  C   UNL     1      12.885  13.690  10.441  1.00  0.00     0.000 A 
ENDBRANCH  22  23
ENDBRANCH  21  22
ENDBRANCH  20  21
BRANCH  20  29
ATOM     29  C   UNL     1       9.127  14.127  16.623  1.00  0.00     0.323 C 
ATOM     30  O   UNL     1       9.298  15.161  17.325  1.00  0.00    -0.250 OA
BRANCH  29  31
ATOM     31  O   UNL     1       7.889  13.867  16.027  1.00  0.00    -0.465 OA
BRANCH  31  32
ATOM     32  C   UNL     1       7.328  14.707  15.023  1.00  0.00     0.229 C 
ATOM     33  C   UNL     1       6.163  15.488  15.609  1.00  0.00     0.049 C 
ENDBRANCH  31  32
ENDBRANCH  29  31
ENDBRANCH  20  29
ENDBRANCH  18  20
ENDBRANCH   1  18
TORSDOF 12
ENDMDL
MODEL 11
REMARK VINA RESULT:    -7.618      2.292      3.915
REMARK INTER + INTRA:         -15.454
REMARK INTER:                 -12.816
REMARK INTRA:                  -2.637
REMARK UNBOUND:                -2.714
REMARK SMILES CCOC(=O)[C@H](CCc1ccccc1)N[C@@H](C)C(=O)N1[C@H](C(=O)O)C[C@H]2CCCC[C@@H]21
REMARK SMILES IDX 16 1 17 2 18 3 19 4 20 5 26 6 25 7 31 8 27 9 21 10 30 11
REMARK SMILES IDX 28 12 29 13 22 14 23 15 24 16 15 18 6 20 7 21 8 22 9 23
REMARK SMILES IDX 10 24 14 25 11 26 13 27 12 28 4 29 5 30 3 31 2 32 1 33
REMARK H PARENT 24 17 15 19
REMARK Flexibility Score: inf
ROOT
ATOM      1  C   UNL     1      12.627  11.771  16.040  1.00  0.00     0.141 C 
ATOM      2  C   UNL     1      12.794  12.900  15.010  1.00  0.00     0.035 C 
ENDROOT
BRANCH   1   3
ATOM      3  C   UNL     1      11.228  11.223  15.970  1.00  0.00     0.240 C 
ATOM      4  O   UNL     1      10.894  10.476  15.011  1.00  0.00    -0.273 OA
BRANCH   3   5
ATOM      5  N   UNL     1      10.256  11.584  16.962  1.00  0.00    -0.324 N 
ATOM      6  C   UNL     1       8.724  12.799  18.228  1.00  0.00     0.014 C 
ATOM      7  C   UNL     1       9.415  11.854  19.197  1.00  0.00     0.043 C 
ATOM      8  C   UNL     1       9.732  12.933  17.105  1.00  0.00     0.089 C 
ATOM      9  C   UNL     1       8.312  14.186  18.724  1.00  0.00     0.006 C 
ATOM     10  C   UNL     1      10.186  10.900  18.257  1.00  0.00     0.195 C 
ATOM     11  C   UNL     1       9.041  13.546  15.884  1.00  0.00     0.025 C 
ATOM     12  C   UNL     1       7.647  14.940  17.552  1.00  0.00     0.000 C 
ATOM     13  C   UNL     1       8.518  14.949  16.271  1.00  0.00     0.002 C 
BRANCH  10  14
ATOM     14  C   UNL     1       9.489   9.579  18.103  1.00  0.00     0.326 C 
ATOM     15  O   UNL     1       8.338   9.405  18.590  1.00  0.00    -0.250 OA
BRANCH  14  16
ATOM     16  O   UNL     1      10.111   8.546  17.409  1.00  0.00    -0.480 OA
ATOM     17  H   UNL     1      10.992   8.696  16.934  1.00  0.00     0.296 HD
ENDBRANCH  14  16
ENDBRANCH  10  14
ENDBRANCH   3   5
ENDBRANCH   1   3
BRANCH   1  18
ATOM     18  N   UNL     1      13.579  10.667  15.812  1.00  0.00    -0.293 NA
ATOM     19  H   UNL     1      14.347  10.953  15.158  1.00  0.00     0.124 HD
BRANCH  18  20
ATOM     20  C   UNL     1      14.124  10.075  17.048  1.00  0.00     0.165 C 
BRANCH  20  21
ATOM     21  C   UNL     1      14.121  11.144  18.155  1.00  0.00     0.036 C 
BRANCH  21  22
ATOM     22  C   UNL     1      15.517  11.381  18.746  1.00  0.00     0.038 C 
BRANCH  22  23
ATOM     23  C   UNL     1      16.139  12.616  18.152  1.00  0.00    -0.048 A 
ATOM     24  C   UNL     1      15.330  13.626  17.604  1.00  0.00     0.004 A 
ATOM     25  C   UNL     1      17.533  12.794  18.188  1.00  0.00     0.004 A 
ATOM     26  C   UNL     1      15.910  14.783  17.073  1.00  0.00     0.000 A 
ATOM     27  C   UNL     1      18.108  13.953  17.657  1.00  0.00     0.000 A 
ATOM     28  C   UNL     1      17.297  14.945  17.098  1.00  0.00     0.000 A 
ENDBRANCH  22  23
ENDBRANCH  21  22
ENDBRANCH  20  21
BRANCH  20  29
ATOM     29  C   UNL     1      13.323   8.872  17.471  1.00  0.00     0.323 C 
ATOM     30  O   UNL     1      13.031   7.985  16.622  1.00  0.00    -0.250 OA
BRANCH  29  31
ATOM     31  O   UNL     1      12.916   8.744  18.803  1.00  0.00    -0.465 OA
BRANCH  31  32
ATOM     32  C   UNL     1      13.138   7.561  19.564  1.00  0.00     0.229 C 
ATOM     33  C   UNL     1      14.297   7.786  20.521  1.00  0.00     0.049 C 
ENDBRANCH  31  32
ENDBRANCH  29  31
ENDBRANCH  20  29
ENDBRANCH  18  20
ENDBRANCH   1  18
TORSDOF 12
ENDMDL
MODEL 12
REMARK VINA RESULT:    -7.615      2.711      6.991
REMARK INTER + INTRA:         -15.448
REMARK INTER:                 -12.830
REMARK INTRA:                  -2.619
REMARK UNBOUND:                -2.714
REMARK SMILES CCOC(=O)[C@H](CCc1ccccc1)N[C@@H](C)C(=O)N1[C@H](C(=O)O)C[C@H]2CCCC[C@@H]21
REMARK SMILES IDX 16 1 17 2 18 3 19 4 20 5 26 6 25 7 31 8 27 9 21 10 30 11
REMARK SMILES IDX 28 12 29 13 22 14 23 15 24 16 15 18 6 20 7 21 8 22 9 23
REMARK SMILES IDX 10 24 14 25 11 26 13 27 12 28 4 29 5 30 3 31 2 32 1 33
REMARK H PARENT 24 17 15 19
REMARK Flexibility Score: inf
ROOT
ATOM      1  C   UNL     1       9.680  11.370  18.210  1.00  0.00     0.141 C 
ATOM      2  C   UNL     1       8.440  11.444  19.117  1.00  0.00     0.035 C 
ENDROOT
BRANCH   1   3
ATOM      3  C   UNL     1      10.290   9.998  18.295  1.00  0.00     0.240 C 
ATOM      4  O   UNL     1       9.607   9.034  18.734  1.00  0.00    -0.273 OA
BRANCH   3   5
ATOM      5  N   UNL     1      11.661   9.789  17.927  1.00  0.00    -0.324 N 
ATOM      6  C   UNL     1      13.959  10.077  17.673  1.00  0.00     0.014 C 
ATOM      7  C   UNL     1      13.477   9.400  16.401  1.00  0.00     0.043 C 
ATOM      8  C   UNL     1      12.711  10.761  18.189  1.00  0.00     0.089 C 
ATOM      9  C   UNL     1      15.104  11.086  17.578  1.00  0.00     0.006 C 
ATOM     10  C   UNL     1      12.031   8.984  16.758  1.00  0.00     0.195 C 
ATOM     11  C   UNL     1      12.932  11.172  19.647  1.00  0.00     0.025 C 
ATOM     12  C   UNL     1      15.389  11.628  18.995  1.00  0.00     0.000 C 
ATOM     13  C   UNL     1      14.119  12.163  19.702  1.00  0.00     0.002 C 
BRANCH  10  14
ATOM     14  C   UNL     1      11.932   7.523  17.089  1.00  0.00     0.326 C 
ATOM     15  O   UNL     1      11.007   6.820  16.598  1.00  0.00    -0.250 OA
BRANCH  14  16
ATOM     16  O   UNL     1      12.872   6.940  17.932  1.00  0.00    -0.480 OA
ATOM     17  H   UNL     1      13.032   7.304  18.863  1.00  0.00     0.296 HD
ENDBRANCH  14  16
ENDBRANCH  10  14
ENDBRANCH   3   5
ENDBRANCH   1   3
BRANCH   1  18
ATOM     18  N   UNL     1       9.354  11.656  16.800  1.00  0.00    -0.293 NA
ATOM     19  H   UNL     1       8.333  11.859  16.676  1.00  0.00     0.124 HD
BRANCH  18  20
ATOM     20  C   UNL     1      10.185  12.709  16.188  1.00  0.00     0.165 C 
BRANCH  20  21
ATOM     21  C   UNL     1      11.006  12.092  15.042  1.00  0.00     0.036 C 
BRANCH  21  22
ATOM     22  C   UNL     1      12.457  12.592  15.024  1.00  0.00     0.038 C 
BRANCH  22  23
ATOM     23  C   UNL     1      12.796  13.181  13.682  1.00  0.00    -0.048 A 
ATOM     24  C   UNL     1      12.515  12.470  12.502  1.00  0.00     0.004 A 
ATOM     25  C   UNL     1      13.349  14.470  13.593  1.00  0.00     0.004 A 
ATOM     26  C   UNL     1      12.811  13.029  11.255  1.00  0.00     0.000 A 
ATOM     27  C   UNL     1      13.642  15.025  12.343  1.00  0.00     0.000 A 
ATOM     28  C   UNL     1      13.376  14.304  11.175  1.00  0.00     0.000 A 
ENDBRANCH  22  23
ENDBRANCH  21  22
ENDBRANCH  20  21
BRANCH  20  29
ATOM     29  C   UNL     1       9.335  13.843  15.679  1.00  0.00     0.323 C 
ATOM     30  O   UNL     1       8.085  13.814  15.851  1.00  0.00    -0.250 OA
BRANCH  29  31
ATOM     31  O   UNL     1       9.938  14.922  15.025  1.00  0.00    -0.465 OA
BRANCH  31  32
ATOM     32  C   UNL     1       9.369  15.539  13.875  1.00  0.00     0.229 C 
ATOM     33  C   UNL     1       9.489  14.600  12.686  1.00  0.00     0.049 C 
ENDBRANCH  31  32
ENDBRANCH  29  31
ENDBRANCH  20  29
ENDBRANCH  18  20
ENDBRANCH   1  18
TORSDOF 12
ENDMDL
MODEL 13
REMARK VINA RESULT:    -7.483      2.721      6.744
REMARK INTER + INTRA:         -15.229
REMARK INTER:                 -13.076
REMARK INTRA:                  -2.153
REMARK UNBOUND:                -2.714
REMARK SMILES CCOC(=O)[C@H](CCc1ccccc1)N[C@@H](C)C(=O)N1[C@H](C(=O)O)C[C@H]2CCCC[C@@H]21
REMARK SMILES IDX 16 1 17 2 18 3 19 4 20 5 26 6 25 7 31 8 27 9 21 10 30 11
REMARK SMILES IDX 28 12 29 13 22 14 23 15 24 16 15 18 6 20 7 21 8 22 9 23
REMARK SMILES IDX 10 24 14 25 11 26 13 27 12 28 4 29 5 30 3 31 2 32 1 33
REMARK H PARENT 24 17 15 19
REMARK Flexibility Score: inf
ROOT
ATOM      1  C   UNL     1       9.736  11.459  18.082  1.00  0.00     0.141 C 
ATOM      2  C   UNL     1       8.446  11.512  18.917  1.00  0.00     0.035 C 
ENDROOT
BRANCH   1   3
ATOM      3  C   UNL     1      10.247  10.046  18.026  1.00  0.00     0.240 C 
ATOM      4  O   UNL     1       9.461   9.085  18.245  1.00  0.00    -0.273 OA
BRANCH   3   5
ATOM      5  N   UNL     1      11.635   9.785  17.773  1.00  0.00    -0.324 N 
ATOM      6  C   UNL     1      13.954   9.996  17.694  1.00  0.00     0.014 C 
ATOM      7  C   UNL     1      13.551   9.296  16.406  1.00  0.00     0.043 C 
ATOM      8  C   UNL     1      12.692  10.732  18.090  1.00  0.00     0.089 C 
ATOM      9  C   UNL     1      15.134  10.967  17.660  1.00  0.00     0.006 C 
ATOM     10  C   UNL     1      12.070   8.935  16.659  1.00  0.00     0.195 C 
ATOM     11  C   UNL     1      12.812  11.180  19.549  1.00  0.00     0.025 C 
ATOM     12  C   UNL     1      15.326  11.543  19.081  1.00  0.00     0.000 C 
ATOM     13  C   UNL     1      14.022  12.137  19.670  1.00  0.00     0.002 C 
BRANCH  10  14
ATOM     14  C   UNL     1      11.898   7.487  17.022  1.00  0.00     0.326 C 
ATOM     15  O   UNL     1      11.015   6.789  16.453  1.00  0.00    -0.250 OA
BRANCH  14  16
ATOM     16  O   UNL     1      12.726   6.913  17.981  1.00  0.00    -0.480 OA
ATOM     17  H   UNL     1      12.463   6.054  18.448  1.00  0.00     0.296 HD
ENDBRANCH  14  16
ENDBRANCH  10  14
ENDBRANCH   3   5
ENDBRANCH   1   3
BRANCH   1  18
ATOM     18  N   UNL     1       9.525  11.940  16.703  1.00  0.00    -0.293 NA
ATOM     19  H   UNL     1       8.684  12.562  16.639  1.00  0.00     0.124 HD
BRANCH  18  20
ATOM     20  C   UNL     1      10.708  12.580  16.098  1.00  0.00     0.165 C 
BRANCH  20  21
ATOM     21  C   UNL     1      11.021  11.882  14.762  1.00  0.00     0.036 C 
BRANCH  21  22
ATOM     22  C   UNL     1      12.402  12.262  14.211  1.00  0.00     0.038 C 
BRANCH  22  23
ATOM     23  C   UNL     1      12.283  12.810  12.815  1.00  0.00    -0.048 A 
ATOM     24  C   UNL     1      13.430  13.209  12.108  1.00  0.00     0.004 A 
ATOM     25  C   UNL     1      11.028  12.879  12.186  1.00  0.00     0.004 A 
ATOM     26  C   UNL     1      13.319  13.697  10.803  1.00  0.00     0.000 A 
ATOM     27  C   UNL     1      10.922  13.367  10.879  1.00  0.00     0.000 A 
ATOM     28  C   UNL     1      12.067  13.779  10.190  1.00  0.00     0.000 A 
ENDBRANCH  22  23
ENDBRANCH  21  22
ENDBRANCH  20  21
BRANCH  20  29
ATOM     29  C   UNL     1      10.479  14.053  15.885  1.00  0.00     0.323 C 
ATOM     30  O   UNL     1       9.487  14.440  15.206  1.00  0.00    -0.250 OA
BRANCH  29  31
ATOM     31  O   UNL     1      11.362  14.980  16.446  1.00  0.00    -0.465 OA
BRANCH  31  32
ATOM     32  C   UNL     1      12.334  14.621  17.422  1.00  0.00     0.229 C 
ATOM     33  C   UNL     1      13.709  14.578  16.776  1.00  0.00     0.049 C 
ENDBRANCH  31  32
ENDBRANCH  29  31
ENDBRANCH  20  29
ENDBRANCH  18  20
ENDBRANCH   1  18
TORSDOF 12
ENDMDL
MODEL 14
REMARK VINA RESULT:    -7.481      2.299      4.727
REMARK INTER + INTRA:         -15.225
REMARK INTER:                 -12.418
REMARK INTRA:                  -2.807
REMARK UNBOUND:                -2.714
REMARK SMILES CCOC(=O)[C@H](CCc1ccccc1)N[C@@H](C)C(=O)N1[C@H](C(=O)O)C[C@H]2CCCC[C@@H]21
REMARK SMILES IDX 16 1 17 2 18 3 19 4 20 5 26 6 25 7 31 8 27 9 21 10 30 11
REMARK SMILES IDX 28 12 29 13 22 14 23 15 24 16 15 18 6 20 7 21 8 22 9 23
REMARK SMILES IDX 10 24 14 25 11 26 13 27 12 28 4 29 5 30 3 31 2 32 1 33
REMARK H PARENT 24 17 15 19
REMARK Flexibility Score: inf
ROOT
ATOM      1  C   UNL     1      13.333   9.893  20.500  1.00  0.00     0.141 C 
ATOM      2  C   UNL     1      13.903   9.296  21.798  1.00  0.00     0.035 C 
ENDROOT
BRANCH   1   3
ATOM      3  C   UNL     1      11.840  10.024  20.614  1.00  0.00     0.240 C 
ATOM      4  O   UNL     1      11.286   9.929  21.742  1.00  0.00    -0.273 OA
BRANCH   3   5
ATOM      5  N   UNL     1      11.036  10.209  19.440  1.00  0.00    -0.324 N 
ATOM      6  C   UNL     1       9.719  11.184  17.783  1.00  0.00     0.014 C 
ATOM      7  C   UNL     1       9.181   9.775  17.974  1.00  0.00     0.043 C 
ATOM      8  C   UNL     1      10.396  11.472  19.107  1.00  0.00     0.089 C 
ATOM      9  C   UNL     1       8.735  12.304  17.447  1.00  0.00     0.006 C 
ATOM     10  C   UNL     1      10.263   9.109  18.854  1.00  0.00     0.195 C 
ATOM     11  C   UNL     1      11.304  12.694  18.948  1.00  0.00     0.025 C 
ATOM     12  C   UNL     1       9.530  13.622  17.317  1.00  0.00     0.000 C 
ATOM     13  C   UNL     1      10.431  13.905  18.545  1.00  0.00     0.002 C 
BRANCH  10  14
ATOM     14  C   UNL     1      11.168   8.217  18.053  1.00  0.00     0.326 C 
ATOM     15  O   UNL     1      10.733   7.623  17.029  1.00  0.00    -0.250 OA
BRANCH  14  16
ATOM     16  O   UNL     1      12.495   8.055  18.437  1.00  0.00    -0.480 OA
ATOM     17  H   UNL     1      12.859   8.520  19.259  1.00  0.00     0.296 HD
ENDBRANCH  14  16
ENDBRANCH  10  14
ENDBRANCH   3   5
ENDBRANCH   1   3
BRANCH   1  18
ATOM     18  N   UNL     1      13.904  11.222  20.204  1.00  0.00    -0.293 NA
ATOM     19  H   UNL     1      14.012  11.795  21.076  1.00  0.00     0.124 HD
BRANCH  18  20
ATOM     20  C   UNL     1      15.159  11.182  19.432  1.00  0.00     0.165 C 
BRANCH  20  21
ATOM     21  C   UNL     1      14.824  10.927  17.951  1.00  0.00     0.036 C 
BRANCH  21  22
ATOM     22  C   UNL     1      14.352  12.196  17.230  1.00  0.00     0.038 C 
BRANCH  22  23
ATOM     23  C   UNL     1      13.317  11.860  16.191  1.00  0.00    -0.048 A 
ATOM     24  C   UNL     1      12.954  10.523  15.957  1.00  0.00     0.004 A 
ATOM     25  C   UNL     1      12.666  12.884  15.483  1.00  0.00     0.004 A 
ATOM     26  C   UNL     1      11.976  10.214  15.007  1.00  0.00     0.000 A 
ATOM     27  C   UNL     1      11.687  12.571  14.534  1.00  0.00     0.000 A 
ATOM     28  C   UNL     1      11.345  11.237  14.294  1.00  0.00     0.000 A 
ENDBRANCH  22  23
ENDBRANCH  21  22
ENDBRANCH  20  21
BRANCH  20  29
ATOM     29  C   UNL     1      15.931  12.466  19.587  1.00  0.00     0.323 C 
ATOM     30  O   UNL     1      17.115  12.540  19.156  1.00  0.00    -0.250 OA
BRANCH  29  31
ATOM     31  O   UNL     1      15.327  13.568  20.200  1.00  0.00    -0.465 OA
BRANCH  31  32
ATOM     32  C   UNL     1      15.350  14.873  19.630  1.00  0.00     0.229 C 
ATOM     33  C   UNL     1      13.926  15.384  19.478  1.00  0.00     0.049 C 
ENDBRANCH  31  32
ENDBRANCH  29  31
ENDBRANCH  20  29
ENDBRANCH  18  20
ENDBRANCH   1  18
TORSDOF 12
ENDMDL
MODEL 15
REMARK VINA RESULT:    -7.317      2.485      6.317
REMARK INTER + INTRA:         -14.951
REMARK INTER:                 -12.931
REMARK INTRA:                  -2.020
REMARK UNBOUND:                -2.714
REMARK SMILES CCOC(=O)[C@H](CCc1ccccc1)N[C@@H](C)C(=O)N1[C@H](C(=O)O)C[C@H]2CCCC[C@@H]21
REMARK SMILES IDX 16 1 17 2 18 3 19 4 20 5 26 6 25 7 31 8 27 9 21 10 30 11
REMARK SMILES IDX 28 12 29 13 22 14 23 15 24 16 15 18 6 20 7 21 8 22 9 23
REMARK SMILES IDX 10 24 14 25 11 26 13 27 12 28 4 29 5 30 3 31 2 32 1 33
REMARK H PARENT 24 17 15 19
REMARK Flexibility Score: inf
ROOT
ATOM      1  C   UNL     1      11.405   8.877  17.362  1.00  0.00     0.141 C 
ATOM      2  C   UNL     1      11.380   7.392  16.966  1.00  0.00     0.035 C 
ENDROOT
BRANCH   1   3
ATOM      3  C   UNL     1      12.825   9.371  17.395  1.00  0.00     0.240 C 
ATOM      4  O   UNL     1      13.539   9.296  16.359  1.00  0.00    -0.273 OA
BRANCH   3   5
ATOM      5  N   UNL     1      13.388   9.882  18.611  1.00  0.00    -0.324 N 
ATOM      6  C   UNL     1      14.099  10.063  20.823  1.00  0.00     0.014 C 
ATOM      7  C   UNL     1      13.624  11.450  20.418  1.00  0.00     0.043 C 
ATOM      8  C   UNL     1      13.348   9.156  19.871  1.00  0.00     0.089 C 
ATOM      9  C   UNL     1      13.875   9.604  22.264  1.00  0.00     0.006 C 
ATOM     10  C   UNL     1      13.450  11.321  18.888  1.00  0.00     0.195 C 
ATOM     11  C   UNL     1      13.991   7.766  19.895  1.00  0.00     0.025 C 
ATOM     12  C   UNL     1      14.434   8.171  22.407  1.00  0.00     0.000 C 
ATOM     13  C   UNL     1      13.884   7.201  21.331  1.00  0.00     0.002 C 
BRANCH  10  14
ATOM     14  C   UNL     1      14.595  11.939  18.138  1.00  0.00     0.326 C 
ATOM     15  O   UNL     1      14.557  13.155  17.806  1.00  0.00    -0.250 OA
BRANCH  14  16
ATOM     16  O   UNL     1      15.707  11.167  17.818  1.00  0.00    -0.480 OA
ATOM     17  H   UNL     1      15.627  10.371  17.198  1.00  0.00     0.296 HD
ENDBRANCH  14  16
ENDBRANCH  10  14
ENDBRANCH   3   5
ENDBRANCH   1   3
BRANCH   1  18
ATOM     18  N   UNL     1      10.634   9.715  16.422  1.00  0.00    -0.293 NA
ATOM     19  H   UNL     1       9.695   9.296  16.218  1.00  0.00     0.124 HD
BRANCH  18  20
ATOM     20  C   UNL     1      10.512  11.126  16.831  1.00  0.00     0.165 C 
BRANCH  20  21
ATOM     21  C   UNL     1      10.581  12.015  15.576  1.00  0.00     0.036 C 
BRANCH  21  22
ATOM     22  C   UNL     1      11.533  11.454  14.512  1.00  0.00     0.038 C 
BRANCH  22  23
ATOM     23  C   UNL     1      12.329  12.562  13.878  1.00  0.00    -0.048 A 
ATOM     24  C   UNL     1      12.539  12.580  12.488  1.00  0.00     0.004 A 
ATOM     25  C   UNL     1      12.824  13.618  14.662  1.00  0.00     0.004 A 
ATOM     26  C   UNL     1      13.260  13.623  11.898  1.00  0.00     0.000 A 
ATOM     27  C   UNL     1      13.543  14.659  14.067  1.00  0.00     0.000 A 
ATOM     28  C   UNL     1      13.763  14.660  12.686  1.00  0.00     0.000 A 
ENDBRANCH  22  23
ENDBRANCH  21  22
ENDBRANCH  20  21
BRANCH  20  29
ATOM     29  C   UNL     1       9.226  11.364  17.578  1.00  0.00     0.323 C 
ATOM     30  O   UNL     1       8.928  12.531  17.956  1.00  0.00    -0.250 OA
BRANCH  29  31
ATOM     31  O   UNL     1       8.369  10.291  17.842  1.00  0.00    -0.465 OA
BRANCH  31  32
ATOM     32  C   UNL     1       7.714  10.121  19.095  1.00  0.00     0.229 C 
ATOM     33  C   UNL     1       8.737   9.747  20.154  1.00  0.00     0.049 C 
ENDBRANCH  31  32
ENDBRANCH  29  31
ENDBRANCH  20  29
ENDBRANCH  18  20
ENDBRANCH   1  18
TORSDOF 12
ENDMDL
