MODEL 1
REMARK VINA RESULT:    -8.098      0.000      0.000
REMARK INTER + INTRA:         -13.093
REMARK INTER:                 -10.939
REMARK INTRA:                  -2.154
REMARK UNBOUND:                -2.154
REMARK SMILES CN1CCC[C@@H]1CCO[C@](C)(c1ccccc1)c1ccc(Cl)cc1
REMARK SMILES IDX 8 1 7 2 6 3 1 4 2 5 3 6 4 7 5 8 9 9 10 10 11 11 12 12 13 13
REMARK SMILES IDX 17 14 14 15 16 16 15 17 18 18 19 19 24 20 20 21 23 22 21 23
REMARK SMILES IDX 22 24
REMARK H PARENT
REMARK Flexibility Score: inf
ROOT
ATOM      1  C   UNL     1       9.812  13.682  16.088  1.00  0.00     0.163 C 
ENDROOT
BRANCH   1   2
ATOM      2  C   UNL     1       9.078  12.583  16.876  1.00  0.00     0.047 C 
BRANCH   2   3
ATOM      3  C   UNL     1       9.912  11.387  17.427  1.00  0.00     0.058 C 
ATOM      4  C   UNL     1       7.944  10.202  18.342  1.00  0.00     0.105 C 
ATOM      5  N   UNL     1       9.206  10.099  17.585  1.00  0.00    -0.303 NA
ATOM      6  C   UNL     1      10.177   9.274  18.329  1.00  0.00     0.084 C 
ATOM      7  C   UNL     1      11.059  10.205  19.166  1.00  0.00     0.017 C 
ATOM      8  C   UNL     1      10.728  11.615  18.699  1.00  0.00     0.020 C 
ENDBRANCH   2   3
ENDBRANCH   1   2
BRANCH   1   9
ATOM      9  O   UNL     1      10.241  13.131  14.850  1.00  0.00    -0.366 OA
BRANCH   9  10
ATOM     10  C   UNL     1      11.650  13.211  14.626  1.00  0.00     0.115 C 
ATOM     11  C   UNL     1      12.286  14.343  15.485  1.00  0.00     0.053 C 
BRANCH  10  12
ATOM     12  C   UNL     1      11.908  13.354  13.114  1.00  0.00    -0.012 A 
ATOM     13  C   UNL     1      10.814  13.284  12.224  1.00  0.00     0.007 A 
ATOM     14  C   UNL     1      13.206  13.479  12.570  1.00  0.00     0.007 A 
ATOM     15  C   UNL     1      11.009  13.345  10.843  1.00  0.00     0.000 A 
ATOM     16  C   UNL     1      13.392  13.562  11.188  1.00  0.00     0.000 A 
ATOM     17  C   UNL     1      12.296  13.490  10.325  1.00  0.00     0.000 A 
ENDBRANCH  10  12
BRANCH  10  18
ATOM     18  C   UNL     1      12.281  11.895  15.100  1.00  0.00    -0.012 A 
ATOM     19  C   UNL     1      13.308  11.901  16.074  1.00  0.00     0.008 A 
ATOM     20  C   UNL     1      11.784  10.644  14.668  1.00  0.00     0.008 A 
ATOM     21  C   UNL     1      13.838  10.707  16.571  1.00  0.00     0.021 A 
ATOM     22  C   UNL     1      12.321   9.453  15.162  1.00  0.00     0.021 A 
ATOM     23  C   UNL     1      13.347   9.481  16.114  1.00  0.00     0.041 A 
ATOM     24  Cl  UNL     1      14.007   7.984  16.739  1.00  0.00    -0.084 Cl
ENDBRANCH  10  18
ENDBRANCH   9  10
ENDBRANCH   1   9
TORSDOF 6
ENDMDL
MODEL 2
REMARK VINA RESULT:    -7.784      2.371      4.405
REMARK INTER + INTRA:         -12.668
REMARK INTER:                 -10.808
REMARK INTRA:                  -1.860
REMARK UNBOUND:                -2.154
REMARK SMILES CN1CCC[C@@H]1CCO[C@](C)(c1ccccc1)c1ccc(Cl)cc1
REMARK SMILES IDX 8 1 7 2 6 3 1 4 2 5 3 6 4 7 5 8 9 9 10 10 11 11 12 12 13 13
REMARK SMILES IDX 17 14 14 15 16 16 15 17 18 18 19 19 24 20 20 21 23 22 21 23
REMARK SMILES IDX 22 24
REMARK H PARENT
REMARK Flexibility Score: inf
ROOT
ATOM      1  C   UNL     1       9.720  13.132  15.908  1.00  0.00     0.163 C 
ENDROOT
BRANCH   1   2
ATOM      2  C   UNL     1       9.222  12.329  17.122  1.00  0.00     0.047 C 
BRANCH   2   3
ATOM      3  C   UNL     1      10.037  11.076  17.564  1.00  0.00     0.058 C 
ATOM      4  C   UNL     1       8.045   9.826  18.330  1.00  0.00     0.105 C 
ATOM      5  N   UNL     1       9.317   9.786  17.584  1.00  0.00    -0.303 NA
ATOM      6  C   UNL     1      10.269   8.881  18.256  1.00  0.00     0.084 C 
ATOM      7  C   UNL     1      11.147   9.716  19.194  1.00  0.00     0.017 C 
ATOM      8  C   UNL     1      10.835  11.169  18.864  1.00  0.00     0.020 C 
ENDBRANCH   2   3
ENDBRANCH   1   2
BRANCH   1   9
ATOM      9  O   UNL     1      11.127  13.293  16.028  1.00  0.00    -0.366 OA
BRANCH   9  10
ATOM     10  C   UNL     1      11.879  12.730  14.950  1.00  0.00     0.115 C 
ATOM     11  C   UNL     1      10.961  12.439  13.726  1.00  0.00     0.053 C 
BRANCH  10  12
ATOM     12  C   UNL     1      12.644  11.498  15.465  1.00  0.00    -0.012 A 
ATOM     13  C   UNL     1      12.331  10.227  14.934  1.00  0.00     0.007 A 
ATOM     14  C   UNL     1      13.599  11.572  16.504  1.00  0.00     0.007 A 
ATOM     15  C   UNL     1      12.954   9.075  15.418  1.00  0.00     0.000 A 
ATOM     16  C   UNL     1      14.235  10.417  16.968  1.00  0.00     0.000 A 
ATOM     17  C   UNL     1      13.910   9.170  16.429  1.00  0.00     0.000 A 
ENDBRANCH  10  12
BRANCH  10  18
ATOM     18  C   UNL     1      12.903  13.777  14.490  1.00  0.00    -0.012 A 
ATOM     19  C   UNL     1      13.225  13.910  13.119  1.00  0.00     0.008 A 
ATOM     20  C   UNL     1      13.465  14.703  15.398  1.00  0.00     0.008 A 
ATOM     21  C   UNL     1      14.099  14.909  12.678  1.00  0.00     0.021 A 
ATOM     22  C   UNL     1      14.342  15.696  14.954  1.00  0.00     0.021 A 
ATOM     23  C   UNL     1      14.659  15.802  13.595  1.00  0.00     0.041 A 
ATOM     24  Cl  UNL     1      15.750  17.057  13.043  1.00  0.00    -0.084 Cl
ENDBRANCH  10  18
ENDBRANCH   9  10
ENDBRANCH   1   9
TORSDOF 6
ENDMDL
MODEL 3
REMARK VINA RESULT:    -7.748      2.510      4.560
REMARK INTER + INTRA:         -12.620
REMARK INTER:                 -10.711
REMARK INTRA:                  -1.908
REMARK UNBOUND:                -2.154
REMARK SMILES CN1CCC[C@@H]1CCO[C@](C)(c1ccccc1)c1ccc(Cl)cc1
REMARK SMILES IDX 8 1 7 2 6 3 1 4 2 5 3 6 4 7 5 8 9 9 10 10 11 11 12 12 13 13
REMARK SMILES IDX 17 14 14 15 16 16 15 17 18 18 19 19 24 20 20 21 23 22 21 23
REMARK SMILES IDX 22 24
REMARK H PARENT
REMARK Flexibility Score: inf
ROOT
ATOM      1  C   UNL     1       9.762  12.815  16.206  1.00  0.00     0.163 C 
ENDROOT
BRANCH   1   2
ATOM      2  C   UNL     1       9.324  12.722  17.679  1.00  0.00     0.047 C 
BRANCH   2   3
ATOM      3  C   UNL     1       9.525  11.368  18.425  1.00  0.00     0.058 C 
ATOM      4  C   UNL     1      11.648  12.061  19.486  1.00  0.00     0.105 C 
ATOM      5  N   UNL     1      10.340  11.401  19.656  1.00  0.00    -0.303 NA
ATOM      6  C   UNL     1      10.531   9.972  19.969  1.00  0.00     0.084 C 
ATOM      7  C   UNL     1      10.467   9.179  18.660  1.00  0.00     0.017 C 
ATOM      8  C   UNL     1       9.992  10.166  17.604  1.00  0.00     0.020 C 
ENDBRANCH   2   3
ENDBRANCH   1   2
BRANCH   1   9
ATOM      9  O   UNL     1      11.140  13.161  16.173  1.00  0.00    -0.366 OA
BRANCH   9  10
ATOM     10  C   UNL     1      11.855  12.629  15.055  1.00  0.00     0.115 C 
ATOM     11  C   UNL     1      10.894  12.361  13.859  1.00  0.00     0.053 C 
BRANCH  10  12
ATOM     12  C   UNL     1      12.644  11.389  15.511  1.00  0.00    -0.012 A 
ATOM     13  C   UNL     1      12.362  10.140  14.915  1.00  0.00     0.007 A 
ATOM     14  C   UNL     1      13.594  11.431  16.556  1.00  0.00     0.007 A 
ATOM     15  C   UNL     1      13.008   8.980  15.343  1.00  0.00     0.000 A 
ATOM     16  C   UNL     1      14.254  10.269  16.965  1.00  0.00     0.000 A 
ATOM     17  C   UNL     1      13.958   9.044  16.362  1.00  0.00     0.000 A 
ENDBRANCH  10  12
BRANCH  10  18
ATOM     18  C   UNL     1      12.856  13.693  14.583  1.00  0.00    -0.012 A 
ATOM     19  C   UNL     1      13.150  13.840  13.207  1.00  0.00     0.008 A 
ATOM     20  C   UNL     1      13.421  14.621  15.486  1.00  0.00     0.008 A 
ATOM     21  C   UNL     1      14.002  14.853  12.757  1.00  0.00     0.021 A 
ATOM     22  C   UNL     1      14.276  15.628  15.033  1.00  0.00     0.021 A 
ATOM     23  C   UNL     1      14.567  15.748  13.669  1.00  0.00     0.041 A 
ATOM     24  Cl  UNL     1      15.630  17.021  13.105  1.00  0.00    -0.084 Cl
ENDBRANCH  10  18
ENDBRANCH   9  10
ENDBRANCH   1   9
TORSDOF 6
ENDMDL
MODEL 4
REMARK VINA RESULT:    -7.509     11.381     14.029
REMARK INTER + INTRA:         -12.296
REMARK INTER:                 -11.224
REMARK INTRA:                  -1.072
REMARK UNBOUND:                -2.154
REMARK SMILES CN1CCC[C@@H]1CCO[C@](C)(c1ccccc1)c1ccc(Cl)cc1
REMARK SMILES IDX 8 1 7 2 6 3 1 4 2 5 3 6 4 7 5 8 9 9 10 10 11 11 12 12 13 13
REMARK SMILES IDX 17 14 14 15 16 16 15 17 18 18 19 19 24 20 20 21 23 22 21 23
REMARK SMILES IDX 22 24
REMARK H PARENT
REMARK Flexibility Score: inf
ROOT
ATOM      1  C   UNL     1      18.482  12.797   3.856  1.00  0.00     0.163 C 
ENDROOT
BRANCH   1   2
ATOM      2  C   UNL     1      19.783  13.553   4.179  1.00  0.00     0.047 C 
BRANCH   2   3
ATOM      3  C   UNL     1      20.931  12.777   4.892  1.00  0.00     0.058 C 
ATOM      4  C   UNL     1      21.780  14.770   6.086  1.00  0.00     0.105 C 
ATOM      5  N   UNL     1      21.425  13.340   6.165  1.00  0.00    -0.303 NA
ATOM      6  C   UNL     1      22.628  12.534   6.444  1.00  0.00     0.084 C 
ATOM      7  C   UNL     1      23.202  12.048   5.109  1.00  0.00     0.017 C 
ATOM      8  C   UNL     1      22.156  12.397   4.060  1.00  0.00     0.020 C 
ENDBRANCH   2   3
ENDBRANCH   1   2
BRANCH   1   9
ATOM      9  O   UNL     1      17.413  13.734   3.843  1.00  0.00    -0.366 OA
BRANCH   9  10
ATOM     10  C   UNL     1      16.112  13.143   3.841  1.00  0.00     0.115 C 
ATOM     11  C   UNL     1      16.040  11.954   4.843  1.00  0.00     0.053 C 
BRANCH  10  12
ATOM     12  C   UNL     1      15.737  12.765   2.396  1.00  0.00    -0.012 A 
ATOM     13  C   UNL     1      14.936  11.624   2.173  1.00  0.00     0.007 A 
ATOM     14  C   UNL     1      16.223  13.471   1.273  1.00  0.00     0.007 A 
ATOM     15  C   UNL     1      14.626  11.209   0.877  1.00  0.00     0.000 A 
ATOM     16  C   UNL     1      15.891  13.063  -0.022  1.00  0.00     0.000 A 
ATOM     17  C   UNL     1      15.097  11.930  -0.219  1.00  0.00     0.000 A 
ENDBRANCH  10  12
BRANCH  10  18
ATOM     18  C   UNL     1      15.113  14.197   4.339  1.00  0.00    -0.012 A 
ATOM     19  C   UNL     1      15.237  15.548   3.940  1.00  0.00     0.008 A 
ATOM     20  C   UNL     1      13.986  13.833   5.111  1.00  0.00     0.008 A 
ATOM     21  C   UNL     1      14.291  16.503   4.325  1.00  0.00     0.021 A 
ATOM     22  C   UNL     1      13.046  14.791   5.498  1.00  0.00     0.021 A 
ATOM     23  C   UNL     1      13.195  16.126   5.106  1.00  0.00     0.041 A 
ATOM     24  Cl  UNL     1      12.007  17.321   5.584  1.00  0.00    -0.084 Cl
ENDBRANCH  10  18
ENDBRANCH   9  10
ENDBRANCH   1   9
TORSDOF 6
ENDMDL
MODEL 5
REMARK VINA RESULT:    -7.460      2.659      4.978
REMARK INTER + INTRA:         -12.230
REMARK INTER:                 -10.362
REMARK INTRA:                  -1.868
REMARK UNBOUND:                -2.154
REMARK SMILES CN1CCC[C@@H]1CCO[C@](C)(c1ccccc1)c1ccc(Cl)cc1
REMARK SMILES IDX 8 1 7 2 6 3 1 4 2 5 3 6 4 7 5 8 9 9 10 10 11 11 12 12 13 13
REMARK SMILES IDX 17 14 14 15 16 16 15 17 18 18 19 19 24 20 20 21 23 22 21 23
REMARK SMILES IDX 22 24
REMARK H PARENT
REMARK Flexibility Score: inf
ROOT
ATOM      1  C   UNL     1      10.351  10.100  17.223  1.00  0.00     0.163 C 
ENDROOT
BRANCH   1   2
ATOM      2  C   UNL     1      10.104  10.364  18.719  1.00  0.00     0.047 C 
BRANCH   2   3
ATOM      3  C   UNL     1      11.065   9.704  19.753  1.00  0.00     0.058 C 
ATOM      4  C   UNL     1      12.392  11.760  20.105  1.00  0.00     0.105 C 
ATOM      5  N   UNL     1      11.718  10.604  20.725  1.00  0.00    -0.303 NA
ATOM      6  C   UNL     1      12.711   9.729  21.377  1.00  0.00     0.084 C 
ATOM      7  C   UNL     1      13.112   8.632  20.386  1.00  0.00     0.017 C 
ATOM      8  C   UNL     1      12.140   8.755  19.222  1.00  0.00     0.020 C 
ENDBRANCH   2   3
ENDBRANCH   1   2
BRANCH   1   9
ATOM      9  O   UNL     1      10.699  11.331  16.604  1.00  0.00    -0.366 OA
BRANCH   9  10
ATOM     10  C   UNL     1      11.795  11.242  15.691  1.00  0.00     0.115 C 
ATOM     11  C   UNL     1      11.845   9.839  15.018  1.00  0.00     0.053 C 
BRANCH  10  12
ATOM     12  C   UNL     1      13.091  11.628  16.428  1.00  0.00    -0.012 A 
ATOM     13  C   UNL     1      13.953  10.603  16.878  1.00  0.00     0.007 A 
ATOM     14  C   UNL     1      13.422  12.965  16.740  1.00  0.00     0.007 A 
ATOM     15  C   UNL     1      15.105  10.905  17.606  1.00  0.00     0.000 A 
ATOM     16  C   UNL     1      14.589  13.262  17.449  1.00  0.00     0.000 A 
ATOM     17  C   UNL     1      15.427  12.233  17.886  1.00  0.00     0.000 A 
ENDBRANCH  10  12
BRANCH  10  18
ATOM     18  C   UNL     1      11.558  12.259  14.567  1.00  0.00    -0.012 A 
ATOM     19  C   UNL     1      12.446  12.333  13.468  1.00  0.00     0.008 A 
ATOM     20  C   UNL     1      10.398  13.066  14.539  1.00  0.00     0.008 A 
ATOM     21  C   UNL     1      12.201  13.202  12.400  1.00  0.00     0.021 A 
ATOM     22  C   UNL     1      10.159  13.937  13.472  1.00  0.00     0.021 A 
ATOM     23  C   UNL     1      11.058  14.006  12.402  1.00  0.00     0.041 A 
ATOM     24  Cl  UNL     1      10.747  15.091  11.062  1.00  0.00    -0.084 Cl
ENDBRANCH  10  18
ENDBRANCH   9  10
ENDBRANCH   1   9
TORSDOF 6
ENDMDL
MODEL 6
REMARK VINA RESULT:    -7.449      3.464      5.009
REMARK INTER + INTRA:         -12.216
REMARK INTER:                 -10.515
REMARK INTRA:                  -1.701
REMARK UNBOUND:                -2.154
REMARK SMILES CN1CCC[C@@H]1CCO[C@](C)(c1ccccc1)c1ccc(Cl)cc1
REMARK SMILES IDX 8 1 7 2 6 3 1 4 2 5 3 6 4 7 5 8 9 9 10 10 11 11 12 12 13 13
REMARK SMILES IDX 17 14 14 15 16 16 15 17 18 18 19 19 24 20 20 21 23 22 21 23
REMARK SMILES IDX 22 24
REMARK H PARENT
REMARK Flexibility Score: inf
ROOT
ATOM      1  C   UNL     1      12.665  11.553  20.252  1.00  0.00     0.163 C 
ENDROOT
BRANCH   1   2
ATOM      2  C   UNL     1      11.823  10.266  20.186  1.00  0.00     0.047 C 
BRANCH   2   3
ATOM      3  C   UNL     1      10.340  10.377  19.722  1.00  0.00     0.058 C 
ATOM      4  C   UNL     1      10.617   8.786  17.849  1.00  0.00     0.105 C 
ATOM      5  N   UNL     1       9.784   9.224  18.985  1.00  0.00    -0.303 NA
ATOM      6  C   UNL     1       8.488   9.731  18.496  1.00  0.00     0.084 C 
ATOM      7  C   UNL     1       8.598  11.250  18.329  1.00  0.00     0.017 C 
ATOM      8  C   UNL     1       9.923  11.640  18.967  1.00  0.00     0.020 C 
ENDBRANCH   2   3
ENDBRANCH   1   2
BRANCH   1   9
ATOM      9  O   UNL     1      13.840  11.356  19.476  1.00  0.00    -0.366 OA
BRANCH   9  10
ATOM     10  C   UNL     1      13.845  12.052  18.228  1.00  0.00     0.115 C 
ATOM     11  C   UNL     1      12.827  13.231  18.245  1.00  0.00     0.053 C 
BRANCH  10  12
ATOM     12  C   UNL     1      13.609  11.040  17.092  1.00  0.00    -0.012 A 
ATOM     13  C   UNL     1      12.710  11.373  16.055  1.00  0.00     0.007 A 
ATOM     14  C   UNL     1      14.200   9.757  17.079  1.00  0.00     0.007 A 
ATOM     15  C   UNL     1      12.418  10.461  15.040  1.00  0.00     0.000 A 
ATOM     16  C   UNL     1      13.920   8.856  16.047  1.00  0.00     0.000 A 
ATOM     17  C   UNL     1      13.027   9.206  15.032  1.00  0.00     0.000 A 
ENDBRANCH  10  12
BRANCH  10  18
ATOM     18  C   UNL     1      15.235  12.676  18.039  1.00  0.00    -0.012 A 
ATOM     19  C   UNL     1      15.375  13.941  17.421  1.00  0.00     0.008 A 
ATOM     20  C   UNL     1      16.392  12.064  18.571  1.00  0.00     0.008 A 
ATOM     21  C   UNL     1      16.627  14.554  17.311  1.00  0.00     0.021 A 
ATOM     22  C   UNL     1      17.642  12.678  18.453  1.00  0.00     0.021 A 
ATOM     23  C   UNL     1      17.762  13.923  17.825  1.00  0.00     0.041 A 
ATOM     24  Cl  UNL     1      19.330  14.692  17.692  1.00  0.00    -0.084 Cl
ENDBRANCH  10  18
ENDBRANCH   9  10
ENDBRANCH   1   9
TORSDOF 6
ENDMDL
MODEL 7
REMARK VINA RESULT:    -7.330      3.021      5.629
REMARK INTER + INTRA:         -12.056
REMARK INTER:                 -10.058
REMARK INTRA:                  -1.998
REMARK UNBOUND:                -2.154
REMARK SMILES CN1CCC[C@@H]1CCO[C@](C)(c1ccccc1)c1ccc(Cl)cc1
REMARK SMILES IDX 8 1 7 2 6 3 1 4 2 5 3 6 4 7 5 8 9 9 10 10 11 11 12 12 13 13
REMARK SMILES IDX 17 14 14 15 16 16 15 17 18 18 19 19 24 20 20 21 23 22 21 23
REMARK SMILES IDX 22 24
REMARK H PARENT
REMARK Flexibility Score: inf
ROOT
ATOM      1  C   UNL     1      12.246   9.837  19.779  1.00  0.00     0.163 C 
ENDROOT
BRANCH   1   2
ATOM      2  C   UNL     1      10.825   9.864  19.188  1.00  0.00     0.047 C 
BRANCH   2   3
ATOM      3  C   UNL     1      10.219  11.242  18.787  1.00  0.00     0.058 C 
ATOM      4  C   UNL     1       8.072  10.837  19.946  1.00  0.00     0.105 C 
ATOM      5  N   UNL     1       9.165  11.788  19.667  1.00  0.00    -0.303 NA
ATOM      6  C   UNL     1       8.652  12.940  18.902  1.00  0.00     0.084 C 
ATOM      7  C   UNL     1       8.866  12.661  17.411  1.00  0.00     0.017 C 
ATOM      8  C   UNL     1       9.739  11.417  17.346  1.00  0.00     0.020 C 
ENDBRANCH   2   3
ENDBRANCH   1   2
BRANCH   1   9
ATOM      9  O   UNL     1      12.892  11.056  19.441  1.00  0.00    -0.366 OA
BRANCH   9  10
ATOM     10  C   UNL     1      13.975  10.914  18.519  1.00  0.00     0.115 C 
ATOM     11  C   UNL     1      14.396   9.421  18.384  1.00  0.00     0.053 C 
BRANCH  10  12
ATOM     12  C   UNL     1      15.121  11.849  18.947  1.00  0.00    -0.012 A 
ATOM     13  C   UNL     1      16.256  11.964  18.115  1.00  0.00     0.007 A 
ATOM     14  C   UNL     1      15.119  12.545  20.176  1.00  0.00     0.007 A 
ATOM     15  C   UNL     1      17.345  12.751  18.494  1.00  0.00     0.000 A 
ATOM     16  C   UNL     1      16.204  13.348  20.540  1.00  0.00     0.000 A 
ATOM     17  C   UNL     1      17.317  13.447  19.702  1.00  0.00     0.000 A 
ENDBRANCH  10  12
BRANCH  10  18
ATOM     18  C   UNL     1      13.480  11.357  17.136  1.00  0.00    -0.012 A 
ATOM     19  C   UNL     1      13.118  10.396  16.162  1.00  0.00     0.008 A 
ATOM     20  C   UNL     1      13.269  12.721  16.834  1.00  0.00     0.008 A 
ATOM     21  C   UNL     1      12.594  10.786  14.926  1.00  0.00     0.021 A 
ATOM     22  C   UNL     1      12.751  13.106  15.594  1.00  0.00     0.021 A 
ATOM     23  C   UNL     1      12.412  12.141  14.640  1.00  0.00     0.041 A 
ATOM     24  Cl  UNL     1      11.752  12.630  13.092  1.00  0.00    -0.084 Cl
ENDBRANCH  10  18
ENDBRANCH   9  10
ENDBRANCH   1   9
TORSDOF 6
ENDMDL
MODEL 8
REMARK VINA RESULT:    -7.208      2.679      4.892
REMARK INTER + INTRA:         -11.890
REMARK INTER:                  -9.936
REMARK INTRA:                  -1.954
REMARK UNBOUND:                -2.154
REMARK SMILES CN1CCC[C@@H]1CCO[C@](C)(c1ccccc1)c1ccc(Cl)cc1
REMARK SMILES IDX 8 1 7 2 6 3 1 4 2 5 3 6 4 7 5 8 9 9 10 10 11 11 12 12 13 13
REMARK SMILES IDX 17 14 14 15 16 16 15 17 18 18 19 19 24 20 20 21 23 22 21 23
REMARK SMILES IDX 22 24
REMARK H PARENT
REMARK Flexibility Score: inf
ROOT
ATOM      1  C   UNL     1      11.715  13.663  17.621  1.00  0.00     0.163 C 
ENDROOT
BRANCH   1   2
ATOM      2  C   UNL     1      12.585  13.289  18.834  1.00  0.00     0.047 C 
BRANCH   2   3
ATOM      3  C   UNL     1      12.094  12.142  19.768  1.00  0.00     0.058 C 
ATOM      4  C   UNL     1      14.345  11.156  20.041  1.00  0.00     0.105 C 
ATOM      5  N   UNL     1      13.089  11.566  20.696  1.00  0.00    -0.303 NA
ATOM      6  C   UNL     1      12.394  10.386  21.242  1.00  0.00     0.084 C 
ATOM      7  C   UNL     1      11.384   9.895  20.200  1.00  0.00     0.017 C 
ATOM      8  C   UNL     1      11.344  10.974  19.127  1.00  0.00     0.020 C 
ENDBRANCH   2   3
ENDBRANCH   1   2
BRANCH   1   9
ATOM      9  O   UNL     1      12.431  13.328  16.439  1.00  0.00    -0.366 OA
BRANCH   9  10
ATOM     10  C   UNL     1      11.776  12.370  15.605  1.00  0.00     0.115 C 
ATOM     11  C   UNL     1      10.237  12.386  15.844  1.00  0.00     0.053 C 
BRANCH  10  12
ATOM     12  C   UNL     1      12.426  10.991  15.822  1.00  0.00    -0.012 A 
ATOM     13  C   UNL     1      11.683   9.829  15.521  1.00  0.00     0.007 A 
ATOM     14  C   UNL     1      13.714  10.835  16.381  1.00  0.00     0.007 A 
ATOM     15  C   UNL     1      12.210   8.559  15.763  1.00  0.00     0.000 A 
ATOM     16  C   UNL     1      14.245   9.561  16.600  1.00  0.00     0.000 A 
ATOM     17  C   UNL     1      13.492   8.425  16.296  1.00  0.00     0.000 A 
ENDBRANCH  10  12
BRANCH  10  18
ATOM     18  C   UNL     1      11.997  12.783  14.144  1.00  0.00    -0.012 A 
ATOM     19  C   UNL     1      11.012  12.514  13.165  1.00  0.00     0.008 A 
ATOM     20  C   UNL     1      13.128  13.538  13.758  1.00  0.00     0.008 A 
ATOM     21  C   UNL     1      11.167  12.952  11.847  1.00  0.00     0.021 A 
ATOM     22  C   UNL     1      13.282  13.969  12.438  1.00  0.00     0.021 A 
ATOM     23  C   UNL     1      12.303  13.678  11.481  1.00  0.00     0.041 A 
ATOM     24  Cl  UNL     1      12.496  14.233   9.830  1.00  0.00    -0.084 Cl
ENDBRANCH  10  18
ENDBRANCH   9  10
ENDBRANCH   1   9
TORSDOF 6
ENDMDL
MODEL 9
REMARK VINA RESULT:    -7.168      4.115      5.825
REMARK INTER + INTRA:         -11.836
REMARK INTER:                 -10.415
REMARK INTRA:                  -1.421
REMARK UNBOUND:                -2.154
REMARK SMILES CN1CCC[C@@H]1CCO[C@](C)(c1ccccc1)c1ccc(Cl)cc1
REMARK SMILES IDX 8 1 7 2 6 3 1 4 2 5 3 6 4 7 5 8 9 9 10 10 11 11 12 12 13 13
REMARK SMILES IDX 17 14 14 15 16 16 15 17 18 18 19 19 24 20 20 21 23 22 21 23
REMARK SMILES IDX 22 24
REMARK H PARENT
REMARK Flexibility Score: inf
ROOT
ATOM      1  C   UNL     1      13.577  11.791  20.616  1.00  0.00     0.163 C 
ENDROOT
BRANCH   1   2
ATOM      2  C   UNL     1      12.874  10.515  21.110  1.00  0.00     0.047 C 
BRANCH   2   3
ATOM      3  C   UNL     1      13.751   9.272  21.450  1.00  0.00     0.058 C 
ATOM      4  C   UNL     1      12.801   7.880  19.640  1.00  0.00     0.105 C 
ATOM      5  N   UNL     1      14.016   8.323  20.350  1.00  0.00    -0.303 NA
ATOM      6  C   UNL     1      14.645   7.179  21.038  1.00  0.00     0.084 C 
ATOM      7  C   UNL     1      14.131   7.144  22.481  1.00  0.00     0.017 C 
ATOM      8  C   UNL     1      13.370   8.447  22.679  1.00  0.00     0.020 C 
ENDBRANCH   2   3
ENDBRANCH   1   2
BRANCH   1   9
ATOM      9  O   UNL     1      14.407  11.445  19.515  1.00  0.00    -0.366 OA
BRANCH   9  10
ATOM     10  C   UNL     1      14.120  12.162  18.313  1.00  0.00     0.115 C 
ATOM     11  C   UNL     1      13.014  13.231  18.554  1.00  0.00     0.053 C 
BRANCH  10  12
ATOM     12  C   UNL     1      13.783  11.155  17.198  1.00  0.00    -0.012 A 
ATOM     13  C   UNL     1      12.828  11.511  16.220  1.00  0.00     0.007 A 
ATOM     14  C   UNL     1      14.334   9.855  17.153  1.00  0.00     0.007 A 
ATOM     15  C   UNL     1      12.445  10.605  15.230  1.00  0.00     0.000 A 
ATOM     16  C   UNL     1      13.963   8.960  16.145  1.00  0.00     0.000 A 
ATOM     17  C   UNL     1      13.016   9.333  15.189  1.00  0.00     0.000 A 
ENDBRANCH  10  12
BRANCH  10  18
ATOM     18  C   UNL     1      15.387  12.927  17.904  1.00  0.00    -0.012 A 
ATOM     19  C   UNL     1      15.290  14.191  17.275  1.00  0.00     0.008 A 
ATOM     20  C   UNL     1      16.674  12.450  18.242  1.00  0.00     0.008 A 
ATOM     21  C   UNL     1      16.435  14.932  16.967  1.00  0.00     0.021 A 
ATOM     22  C   UNL     1      17.815  13.191  17.927  1.00  0.00     0.021 A 
ATOM     23  C   UNL     1      17.698  14.433  17.291  1.00  0.00     0.041 A 
ATOM     24  Cl  UNL     1      19.133  15.363  16.909  1.00  0.00    -0.084 Cl
ENDBRANCH  10  18
ENDBRANCH   9  10
ENDBRANCH   1   9
TORSDOF 6
ENDMDL
MODEL 10
REMARK VINA RESULT:    -7.124      2.527      3.706
REMARK INTER + INTRA:         -11.777
REMARK INTER:                 -10.449
REMARK INTRA:                  -1.328
REMARK UNBOUND:                -2.154
REMARK SMILES CN1CCC[C@@H]1CCO[C@](C)(c1ccccc1)c1ccc(Cl)cc1
REMARK SMILES IDX 8 1 7 2 6 3 1 4 2 5 3 6 4 7 5 8 9 9 10 10 11 11 12 12 13 13
REMARK SMILES IDX 17 14 14 15 16 16 15 17 18 18 19 19 24 20 20 21 23 22 21 23
REMARK SMILES IDX 22 24
REMARK H PARENT
REMARK Flexibility Score: inf
ROOT
ATOM      1  C   UNL     1       9.525  14.007  15.562  1.00  0.00     0.163 C 
ENDROOT
BRANCH   1   2
ATOM      2  C   UNL     1       8.318  14.589  14.805  1.00  0.00     0.047 C 
BRANCH   2   3
ATOM      3  C   UNL     1       7.084  15.060  15.633  1.00  0.00     0.058 C 
ATOM      4  C   UNL     1       6.558  16.942  14.118  1.00  0.00     0.105 C 
ATOM      5  N   UNL     1       6.039  15.807  14.905  1.00  0.00    -0.303 NA
ATOM      6  C   UNL     1       5.164  16.300  15.986  1.00  0.00     0.084 C 
ATOM      7  C   UNL     1       6.008  16.456  17.255  1.00  0.00     0.017 C 
ATOM      8  C   UNL     1       7.348  15.808  16.940  1.00  0.00     0.020 C 
ENDBRANCH   2   3
ENDBRANCH   1   2
BRANCH   1   9
ATOM      9  O   UNL     1      10.125  13.011  14.745  1.00  0.00    -0.366 OA
BRANCH   9  10
ATOM     10  C   UNL     1      11.542  13.138  14.607  1.00  0.00     0.115 C 
ATOM     11  C   UNL     1      12.087  14.285  15.507  1.00  0.00     0.053 C 
BRANCH  10  12
ATOM     12  C   UNL     1      11.886  13.298  13.115  1.00  0.00    -0.012 A 
ATOM     13  C   UNL     1      10.858  13.156  12.157  1.00  0.00     0.007 A 
ATOM     14  C   UNL     1      13.204  13.508  12.654  1.00  0.00     0.007 A 
ATOM     15  C   UNL     1      11.136  13.229  10.791  1.00  0.00     0.000 A 
ATOM     16  C   UNL     1      13.473  13.603  11.286  1.00  0.00     0.000 A 
ATOM     17  C   UNL     1      12.441  13.459  10.355  1.00  0.00     0.000 A 
ENDBRANCH  10  12
BRANCH  10  18
ATOM     18  C   UNL     1      12.185  11.840  15.114  1.00  0.00    -0.012 A 
ATOM     19  C   UNL     1      13.232  11.882  16.065  1.00  0.00     0.008 A 
ATOM     20  C   UNL     1      11.682  10.574  14.736  1.00  0.00     0.008 A 
ATOM     21  C   UNL     1      13.775  10.707  16.592  1.00  0.00     0.021 A 
ATOM     22  C   UNL     1      12.232   9.402  15.261  1.00  0.00     0.021 A 
ATOM     23  C   UNL     1      13.277   9.465  16.189  1.00  0.00     0.041 A 
ATOM     24  Cl  UNL     1      13.953   7.991  16.853  1.00  0.00    -0.084 Cl
ENDBRANCH  10  18
ENDBRANCH   9  10
ENDBRANCH   1   9
TORSDOF 6
ENDMDL
MODEL 11
REMARK VINA RESULT:    -7.093      2.456      6.460
REMARK INTER + INTRA:         -11.735
REMARK INTER:                 -10.426
REMARK INTRA:                  -1.309
REMARK UNBOUND:                -2.154
REMARK SMILES CN1CCC[C@@H]1CCO[C@](C)(c1ccccc1)c1ccc(Cl)cc1
REMARK SMILES IDX 8 1 7 2 6 3 1 4 2 5 3 6 4 7 5 8 9 9 10 10 11 11 12 12 13 13
REMARK SMILES IDX 17 14 14 15 16 16 15 17 18 18 19 19 24 20 20 21 23 22 21 23
REMARK SMILES IDX 22 24
REMARK H PARENT
REMARK Flexibility Score: inf
ROOT
ATOM      1  C   UNL     1      11.401  12.057  13.685  1.00  0.00     0.163 C 
ENDROOT
BRANCH   1   2
ATOM      2  C   UNL     1      12.557  12.930  13.168  1.00  0.00     0.047 C 
BRANCH   2   3
ATOM      3  C   UNL     1      12.657  13.188  11.634  1.00  0.00     0.058 C 
ATOM      4  C   UNL     1      13.506  15.497  11.896  1.00  0.00     0.105 C 
ATOM      5  N   UNL     1      13.633  14.206  11.192  1.00  0.00    -0.303 NA
ATOM      6  C   UNL     1      13.315  14.377   9.762  1.00  0.00     0.084 C 
ATOM      7  C   UNL     1      11.834  14.046   9.554  1.00  0.00     0.017 C 
ATOM      8  C   UNL     1      11.359  13.445  10.869  1.00  0.00     0.020 C 
ENDBRANCH   2   3
ENDBRANCH   1   2
BRANCH   1   9
ATOM      9  O   UNL     1      11.283  12.258  15.087  1.00  0.00    -0.366 OA
BRANCH   9  10
ATOM     10  C   UNL     1      11.612  11.113  15.877  1.00  0.00     0.115 C 
ATOM     11  C   UNL     1      11.896   9.878  14.972  1.00  0.00     0.053 C 
BRANCH  10  12
ATOM     12  C   UNL     1      10.497  10.885  16.913  1.00  0.00    -0.012 A 
ATOM     13  C   UNL     1       9.619  11.948  17.219  1.00  0.00     0.007 A 
ATOM     14  C   UNL     1      10.358   9.675  17.630  1.00  0.00     0.007 A 
ATOM     15  C   UNL     1       8.635  11.804  18.199  1.00  0.00     0.000 A 
ATOM     16  C   UNL     1       9.356   9.531  18.594  1.00  0.00     0.000 A 
ATOM     17  C   UNL     1       8.499  10.596  18.881  1.00  0.00     0.000 A 
ENDBRANCH  10  12
BRANCH  10  18
ATOM     18  C   UNL     1      12.916  11.415  16.628  1.00  0.00    -0.012 A 
ATOM     19  C   UNL     1      13.809  10.370  16.963  1.00  0.00     0.008 A 
ATOM     20  C   UNL     1      13.313  12.743  16.906  1.00  0.00     0.008 A 
ATOM     21  C   UNL     1      15.035  10.639  17.580  1.00  0.00     0.021 A 
ATOM     22  C   UNL     1      14.537  13.007  17.528  1.00  0.00     0.021 A 
ATOM     23  C   UNL     1      15.399  11.957  17.864  1.00  0.00     0.041 A 
ATOM     24  Cl  UNL     1      16.937  12.296  18.633  1.00  0.00    -0.084 Cl
ENDBRANCH  10  18
ENDBRANCH   9  10
ENDBRANCH   1   9
TORSDOF 6
ENDMDL
MODEL 12
REMARK VINA RESULT:    -7.061      3.472      5.972
REMARK INTER + INTRA:         -11.692
REMARK INTER:                 -10.262
REMARK INTRA:                  -1.430
REMARK UNBOUND:                -2.154
REMARK SMILES CN1CCC[C@@H]1CCO[C@](C)(c1ccccc1)c1ccc(Cl)cc1
REMARK SMILES IDX 8 1 7 2 6 3 1 4 2 5 3 6 4 7 5 8 9 9 10 10 11 11 12 12 13 13
REMARK SMILES IDX 17 14 14 15 16 16 15 17 18 18 19 19 24 20 20 21 23 22 21 23
REMARK SMILES IDX 22 24
REMARK H PARENT
REMARK Flexibility Score: inf
ROOT
ATOM      1  C   UNL     1      13.316  14.783  16.704  1.00  0.00     0.163 C 
ENDROOT
BRANCH   1   2
ATOM      2  C   UNL     1      14.626  15.159  17.418  1.00  0.00     0.047 C 
BRANCH   2   3
ATOM      3  C   UNL     1      15.709  14.054  17.604  1.00  0.00     0.058 C 
ATOM      4  C   UNL     1      15.685  14.192  20.073  1.00  0.00     0.105 C 
ATOM      5  N   UNL     1      15.697  13.318  18.884  1.00  0.00    -0.303 NA
ATOM      6  C   UNL     1      16.952  12.544  18.838  1.00  0.00     0.084 C 
ATOM      7  C   UNL     1      17.956  13.305  17.966  1.00  0.00     0.017 C 
ATOM      8  C   UNL     1      17.163  14.426  17.309  1.00  0.00     0.020 C 
ENDBRANCH   2   3
ENDBRANCH   1   2
BRANCH   1   9
ATOM      9  O   UNL     1      13.589  13.714  15.807  1.00  0.00    -0.366 OA
BRANCH   9  10
ATOM     10  C   UNL     1      12.465  12.876  15.530  1.00  0.00     0.115 C 
ATOM     11  C   UNL     1      11.220  13.328  16.350  1.00  0.00     0.053 C 
BRANCH  10  12
ATOM     12  C   UNL     1      12.867  11.409  15.765  1.00  0.00    -0.012 A 
ATOM     13  C   UNL     1      13.907  11.121  16.677  1.00  0.00     0.007 A 
ATOM     14  C   UNL     1      12.290  10.336  15.049  1.00  0.00     0.007 A 
ATOM     15  C   UNL     1      14.347   9.811  16.872  1.00  0.00     0.000 A 
ATOM     16  C   UNL     1      12.720   9.024  15.266  1.00  0.00     0.000 A 
ATOM     17  C   UNL     1      13.750   8.762  16.172  1.00  0.00     0.000 A 
ENDBRANCH  10  12
BRANCH  10  18
ATOM     18  C   UNL     1      12.100  13.046  14.049  1.00  0.00    -0.012 A 
ATOM     19  C   UNL     1      10.747  13.160  13.653  1.00  0.00     0.008 A 
ATOM     20  C   UNL     1      13.098  13.205  13.061  1.00  0.00     0.008 A 
ATOM     21  C   UNL     1      10.404  13.391  12.317  1.00  0.00     0.021 A 
ATOM     22  C   UNL     1      12.751  13.430  11.726  1.00  0.00     0.021 A 
ATOM     23  C   UNL     1      11.406  13.525  11.352  1.00  0.00     0.041 A 
ATOM     24  Cl  UNL     1      10.978  13.820   9.679  1.00  0.00    -0.084 Cl
ENDBRANCH  10  18
ENDBRANCH   9  10
ENDBRANCH   1   9
TORSDOF 6
ENDMDL
MODEL 13
REMARK VINA RESULT:    -7.051      3.286      5.485
REMARK INTER + INTRA:         -11.679
REMARK INTER:                  -9.772
REMARK INTRA:                  -1.907
REMARK UNBOUND:                -2.154
REMARK SMILES CN1CCC[C@@H]1CCO[C@](C)(c1ccccc1)c1ccc(Cl)cc1
REMARK SMILES IDX 8 1 7 2 6 3 1 4 2 5 3 6 4 7 5 8 9 9 10 10 11 11 12 12 13 13
REMARK SMILES IDX 17 14 14 15 16 16 15 17 18 18 19 19 24 20 20 21 23 22 21 23
REMARK SMILES IDX 22 24
REMARK H PARENT
REMARK Flexibility Score: inf
ROOT
ATOM      1  C   UNL     1      10.885  11.244  19.455  1.00  0.00     0.163 C 
ENDROOT
BRANCH   1   2
ATOM      2  C   UNL     1      12.323  10.778  19.171  1.00  0.00     0.047 C 
BRANCH   2   3
ATOM      3  C   UNL     1      12.599   9.999  17.849  1.00  0.00     0.058 C 
ATOM      4  C   UNL     1      12.945   7.831  18.988  1.00  0.00     0.105 C 
ATOM      5  N   UNL     1      12.320   8.548  17.861  1.00  0.00    -0.303 NA
ATOM      6  C   UNL     1      12.897   8.086  16.584  1.00  0.00     0.084 C 
ATOM      7  C   UNL     1      14.045   9.027  16.205  1.00  0.00     0.017 C 
ATOM      8  C   UNL     1      13.959  10.193  17.180  1.00  0.00     0.020 C 
ENDBRANCH   2   3
ENDBRANCH   1   2
BRANCH   1   9
ATOM      9  O   UNL     1      10.678  12.482  18.789  1.00  0.00    -0.366 OA
BRANCH   9  10
ATOM     10  C   UNL     1       9.916  12.383  17.584  1.00  0.00     0.115 C 
ATOM     11  C   UNL     1       9.029  11.102  17.592  1.00  0.00     0.053 C 
BRANCH  10  12
ATOM     12  C   UNL     1      10.871  12.473  16.380  1.00  0.00    -0.012 A 
ATOM     13  C   UNL     1      10.736  11.540  15.327  1.00  0.00     0.007 A 
ATOM     14  C   UNL     1      11.930  13.406  16.315  1.00  0.00     0.007 A 
ATOM     15  C   UNL     1      11.621  11.545  14.248  1.00  0.00     0.000 A 
ATOM     16  C   UNL     1      12.799  13.419  15.220  1.00  0.00     0.000 A 
ATOM     17  C   UNL     1      12.648  12.488  14.191  1.00  0.00     0.000 A 
ENDBRANCH  10  12
BRANCH  10  18
ATOM     18  C   UNL     1       8.956  13.579  17.529  1.00  0.00    -0.012 A 
ATOM     19  C   UNL     1       8.329  13.941  16.314  1.00  0.00     0.008 A 
ATOM     20  C   UNL     1       8.588  14.279  18.701  1.00  0.00     0.008 A 
ATOM     21  C   UNL     1       7.395  14.980  16.266  1.00  0.00     0.021 A 
ATOM     22  C   UNL     1       7.659  15.321  18.647  1.00  0.00     0.021 A 
ATOM     23  C   UNL     1       7.060  15.673  17.432  1.00  0.00     0.041 A 
ATOM     24  Cl  UNL     1       5.887  16.973  17.374  1.00  0.00    -0.084 Cl
ENDBRANCH  10  18
ENDBRANCH   9  10
ENDBRANCH   1   9
TORSDOF 6
ENDMDL
MODEL 14
REMARK VINA RESULT:    -7.011      2.526      4.835
REMARK INTER + INTRA:         -11.625
REMARK INTER:                  -9.778
REMARK INTRA:                  -1.847
REMARK UNBOUND:                -2.154
REMARK SMILES CN1CCC[C@@H]1CCO[C@](C)(c1ccccc1)c1ccc(Cl)cc1
REMARK SMILES IDX 8 1 7 2 6 3 1 4 2 5 3 6 4 7 5 8 9 9 10 10 11 11 12 12 13 13
REMARK SMILES IDX 17 14 14 15 16 16 15 17 18 18 19 19 24 20 20 21 23 22 21 23
REMARK SMILES IDX 22 24
REMARK H PARENT
REMARK Flexibility Score: inf
ROOT
ATOM      1  C   UNL     1       9.821  11.122  18.032  1.00  0.00     0.163 C 
ENDROOT
BRANCH   1   2
ATOM      2  C   UNL     1      10.303   9.721  17.615  1.00  0.00     0.047 C 
BRANCH   2   3
ATOM      3  C   UNL     1      11.637   9.607  16.817  1.00  0.00     0.058 C 
ATOM      4  C   UNL     1      12.397   7.589  18.027  1.00  0.00     0.105 C 
ATOM      5  N   UNL     1      12.245   8.264  16.725  1.00  0.00    -0.303 NA
ATOM      6  C   UNL     1      13.571   8.536  16.138  1.00  0.00     0.084 C 
ATOM      7  C   UNL     1      13.990   9.956  16.530  1.00  0.00     0.017 C 
ATOM      8  C   UNL     1      12.758  10.588  17.162  1.00  0.00     0.020 C 
ENDBRANCH   2   3
ENDBRANCH   1   2
BRANCH   1   9
ATOM      9  O   UNL     1       9.418  11.821  16.863  1.00  0.00    -0.366 OA
BRANCH   9  10
ATOM     10  C   UNL     1       9.876  13.173  16.797  1.00  0.00     0.115 C 
ATOM     11  C   UNL     1      10.746  13.525  18.039  1.00  0.00     0.053 C 
BRANCH  10  12
ATOM     12  C   UNL     1       8.664  14.102  16.601  1.00  0.00    -0.012 A 
ATOM     13  C   UNL     1       8.209  14.874  17.692  1.00  0.00     0.007 A 
ATOM     14  C   UNL     1       7.937  14.161  15.391  1.00  0.00     0.007 A 
ATOM     15  C   UNL     1       7.076  15.681  17.576  1.00  0.00     0.000 A 
ATOM     16  C   UNL     1       6.816  14.988  15.275  1.00  0.00     0.000 A 
ATOM     17  C   UNL     1       6.383  15.743  16.367  1.00  0.00     0.000 A 
ENDBRANCH  10  12
BRANCH  10  18
ATOM     18  C   UNL     1      10.789  13.305  15.571  1.00  0.00    -0.012 A 
ATOM     19  C   UNL     1      11.721  14.365  15.481  1.00  0.00     0.008 A 
ATOM     20  C   UNL     1      10.805  12.319  14.558  1.00  0.00     0.008 A 
ATOM     21  C   UNL     1      12.611  14.454  14.407  1.00  0.00     0.021 A 
ATOM     22  C   UNL     1      11.692  12.415  13.482  1.00  0.00     0.021 A 
ATOM     23  C   UNL     1      12.596  13.480  13.405  1.00  0.00     0.041 A 
ATOM     24  Cl  UNL     1      13.714  13.588  12.060  1.00  0.00    -0.084 Cl
ENDBRANCH  10  18
ENDBRANCH   9  10
ENDBRANCH   1   9
TORSDOF 6
ENDMDL
