MODEL 1
REMARK VINA RESULT:    -7.463      0.000      0.000
REMARK INTER + INTRA:         -11.857
REMARK INTER:                 -10.081
REMARK INTRA:                  -1.776
REMARK UNBOUND:                -1.776
REMARK SMILES CN1CCC[C@@H]1CCO[C@](C)(c1ccccc1)c1ccc(Cl)cc1
REMARK SMILES IDX 8 1 7 2 6 3 1 4 2 5 3 6 4 7 5 8 9 9 10 10 11 11 12 12 13 13
REMARK SMILES IDX 17 14 14 15 16 16 15 17 18 18 19 19 24 20 20 21 23 22 21 23
REMARK SMILES IDX 22 24
REMARK H PARENT
REMARK Flexibility Score: inf
ROOT
ATOM      1  C   UNL     1      21.757  33.132  13.975  1.00  0.00     0.163 C 
ENDROOT
BRANCH   1   2
ATOM      2  C   UNL     1      22.805  34.245  14.141  1.00  0.00     0.047 C 
BRANCH   2   3
ATOM      3  C   UNL     1      22.711  35.492  13.211  1.00  0.00     0.058 C 
ATOM      4  C   UNL     1      24.742  34.912  11.925  1.00  0.00     0.105 C 
ATOM      5  N   UNL     1      23.344  35.381  11.881  1.00  0.00    -0.303 NA
ATOM      6  C   UNL     1      23.290  36.763  11.367  1.00  0.00     0.084 C 
ATOM      7  C   UNL     1      23.300  37.722  12.562  1.00  0.00     0.017 C 
ATOM      8  C   UNL     1      23.117  36.847  13.793  1.00  0.00     0.020 C 
ENDBRANCH   2   3
ENDBRANCH   1   2
BRANCH   1   9
ATOM      9  O   UNL     1      20.639  33.672  13.284  1.00  0.00    -0.366 OA
BRANCH   9  10
ATOM     10  C   UNL     1      19.375  33.370  13.880  1.00  0.00     0.115 C 
ATOM     11  C   UNL     1      19.376  31.937  14.488  1.00  0.00     0.053 C 
BRANCH  10  12
ATOM     12  C   UNL     1      18.264  33.606  12.841  1.00  0.00    -0.012 A 
ATOM     13  C   UNL     1      18.625  33.919  11.512  1.00  0.00     0.007 A 
ATOM     14  C   UNL     1      16.892  33.596  13.176  1.00  0.00     0.007 A 
ATOM     15  C   UNL     1      17.652  34.204  10.553  1.00  0.00     0.000 A 
ATOM     16  C   UNL     1      15.921  33.860  12.205  1.00  0.00     0.000 A 
ATOM     17  C   UNL     1      16.301  34.169  10.897  1.00  0.00     0.000 A 
ENDBRANCH  10  12
BRANCH  10  18
ATOM     18  C   UNL     1      19.158  34.341  15.048  1.00  0.00    -0.012 A 
ATOM     19  C   UNL     1      18.841  33.853  16.338  1.00  0.00     0.008 A 
ATOM     20  C   UNL     1      19.376  35.730  14.899  1.00  0.00     0.008 A 
ATOM     21  C   UNL     1      18.716  34.721  17.427  1.00  0.00     0.021 A 
ATOM     22  C   UNL     1      19.243  36.595  15.989  1.00  0.00     0.021 A 
ATOM     23  C   UNL     1      18.915  36.093  17.253  1.00  0.00     0.041 A 
ATOM     24  Cl  UNL     1      18.763  37.181  18.618  1.00  0.00    -0.084 Cl
ENDBRANCH  10  18
ENDBRANCH   9  10
ENDBRANCH   1   9
TORSDOF 6
ENDMDL
MODEL 2
REMARK VINA RESULT:    -7.460      0.159      1.000
REMARK INTER + INTRA:         -11.853
REMARK INTER:                 -10.053
REMARK INTRA:                  -1.800
REMARK UNBOUND:                -1.776
REMARK SMILES CN1CCC[C@@H]1CCO[C@](C)(c1ccccc1)c1ccc(Cl)cc1
REMARK SMILES IDX 8 1 7 2 6 3 1 4 2 5 3 6 4 7 5 8 9 9 10 10 11 11 12 12 13 13
REMARK SMILES IDX 17 14 14 15 16 16 15 17 18 18 19 19 24 20 20 21 23 22 21 23
REMARK SMILES IDX 22 24
REMARK H PARENT
REMARK Flexibility Score: inf
ROOT
ATOM      1  C   UNL     1      21.842  32.983  13.834  1.00  0.00     0.163 C 
ENDROOT
BRANCH   1   2
ATOM      2  C   UNL     1      22.828  34.138  14.081  1.00  0.00     0.047 C 
BRANCH   2   3
ATOM      3  C   UNL     1      22.715  35.409  13.185  1.00  0.00     0.058 C 
ATOM      4  C   UNL     1      24.761  34.900  11.892  1.00  0.00     0.105 C 
ATOM      5  N   UNL     1      23.355  35.346  11.856  1.00  0.00    -0.303 NA
ATOM      6  C   UNL     1      23.279  36.740  11.380  1.00  0.00     0.084 C 
ATOM      7  C   UNL     1      23.268  37.666  12.601  1.00  0.00     0.017 C 
ATOM      8  C   UNL     1      23.095  36.753  13.807  1.00  0.00     0.020 C 
ENDBRANCH   2   3
ENDBRANCH   1   2
BRANCH   1   9
ATOM      9  O   UNL     1      20.706  33.504  13.158  1.00  0.00    -0.366 OA
BRANCH   9  10
ATOM     10  C   UNL     1      19.459  33.221  13.796  1.00  0.00     0.115 C 
ATOM     11  C   UNL     1      19.448  31.777  14.379  1.00  0.00     0.053 C 
BRANCH  10  12
ATOM     12  C   UNL     1      18.315  33.503  12.805  1.00  0.00    -0.012 A 
ATOM     13  C   UNL     1      18.634  33.895  11.486  1.00  0.00     0.007 A 
ATOM     14  C   UNL     1      16.953  33.457  13.178  1.00  0.00     0.007 A 
ATOM     15  C   UNL     1      17.629  34.222  10.573  1.00  0.00     0.000 A 
ATOM     16  C   UNL     1      15.952  33.764  12.252  1.00  0.00     0.000 A 
ATOM     17  C   UNL     1      16.289  34.150  10.954  1.00  0.00     0.000 A 
ENDBRANCH  10  12
BRANCH  10  18
ATOM     18  C   UNL     1      19.309  34.176  14.989  1.00  0.00    -0.012 A 
ATOM     19  C   UNL     1      19.344  35.577  14.795  1.00  0.00     0.008 A 
ATOM     20  C   UNL     1      19.024  33.691  16.286  1.00  0.00     0.008 A 
ATOM     21  C   UNL     1      19.133  36.457  15.861  1.00  0.00     0.021 A 
ATOM     22  C   UNL     1      18.821  34.575  17.349  1.00  0.00     0.021 A 
ATOM     23  C   UNL     1      18.873  35.957  17.139  1.00  0.00     0.041 A 
ATOM     24  Cl  UNL     1      18.605  37.060  18.474  1.00  0.00    -0.084 Cl
ENDBRANCH  10  18
ENDBRANCH   9  10
ENDBRANCH   1   9
TORSDOF 6
ENDMDL
MODEL 3
REMARK VINA RESULT:    -7.458      2.982      5.661
REMARK INTER + INTRA:         -11.850
REMARK INTER:                 -10.965
REMARK INTRA:                  -0.885
REMARK UNBOUND:                -1.776
REMARK SMILES CN1CCC[C@@H]1CCO[C@](C)(c1ccccc1)c1ccc(Cl)cc1
REMARK SMILES IDX 8 1 7 2 6 3 1 4 2 5 3 6 4 7 5 8 9 9 10 10 11 11 12 12 13 13
REMARK SMILES IDX 17 14 14 15 16 16 15 17 18 18 19 19 24 20 20 21 23 22 21 23
REMARK SMILES IDX 22 24
REMARK H PARENT
REMARK Flexibility Score: inf
ROOT
ATOM      1  C   UNL     1      17.839  33.252  11.743  1.00  0.00     0.163 C 
ENDROOT
BRANCH   1   2
ATOM      2  C   UNL     1      17.643  33.900  10.361  1.00  0.00     0.047 C 
BRANCH   2   3
ATOM      3  C   UNL     1      16.525  33.335   9.433  1.00  0.00     0.058 C 
ATOM      4  C   UNL     1      17.963  31.564   8.478  1.00  0.00     0.105 C 
ATOM      5  N   UNL     1      16.644  31.917   9.035  1.00  0.00    -0.303 NA
ATOM      6  C   UNL     1      15.602  31.772   8.000  1.00  0.00     0.084 C 
ATOM      7  C   UNL     1      15.394  33.134   7.331  1.00  0.00     0.017 C 
ATOM      8  C   UNL     1      16.175  34.130   8.176  1.00  0.00     0.020 C 
ENDBRANCH   2   3
ENDBRANCH   1   2
BRANCH   1   9
ATOM      9  O   UNL     1      17.748  34.271  12.730  1.00  0.00    -0.366 OA
BRANCH   9  10
ATOM     10  C   UNL     1      18.114  33.851  14.046  1.00  0.00     0.115 C 
ATOM     11  C   UNL     1      18.457  32.332  14.069  1.00  0.00     0.053 C 
BRANCH  10  12
ATOM     12  C   UNL     1      16.997  34.254  15.026  1.00  0.00    -0.012 A 
ATOM     13  C   UNL     1      17.226  34.126  16.414  1.00  0.00     0.007 A 
ATOM     14  C   UNL     1      15.721  34.678  14.595  1.00  0.00     0.007 A 
ATOM     15  C   UNL     1      16.219  34.418  17.336  1.00  0.00     0.000 A 
ATOM     16  C   UNL     1      14.724  34.991  15.524  1.00  0.00     0.000 A 
ATOM     17  C   UNL     1      14.972  34.856  16.892  1.00  0.00     0.000 A 
ENDBRANCH  10  12
BRANCH  10  18
ATOM     18  C   UNL     1      19.396  34.596  14.442  1.00  0.00    -0.012 A 
ATOM     19  C   UNL     1      20.665  34.058  14.125  1.00  0.00     0.008 A 
ATOM     20  C   UNL     1      19.347  35.881  15.029  1.00  0.00     0.008 A 
ATOM     21  C   UNL     1      21.839  34.762  14.412  1.00  0.00     0.021 A 
ATOM     22  C   UNL     1      20.522  36.578  15.320  1.00  0.00     0.021 A 
ATOM     23  C   UNL     1      21.769  36.022  15.012  1.00  0.00     0.041 A 
ATOM     24  Cl  UNL     1      23.238  36.907  15.368  1.00  0.00    -0.084 Cl
ENDBRANCH  10  18
ENDBRANCH   9  10
ENDBRANCH   1   9
TORSDOF 6
ENDMDL
MODEL 4
REMARK VINA RESULT:    -7.442      3.927      7.060
REMARK INTER + INTRA:         -11.828
REMARK INTER:                 -10.770
REMARK INTRA:                  -1.058
REMARK UNBOUND:                -1.776
REMARK SMILES CN1CCC[C@@H]1CCO[C@](C)(c1ccccc1)c1ccc(Cl)cc1
REMARK SMILES IDX 8 1 7 2 6 3 1 4 2 5 3 6 4 7 5 8 9 9 10 10 11 11 12 12 13 13
REMARK SMILES IDX 17 14 14 15 16 16 15 17 18 18 19 19 24 20 20 21 23 22 21 23
REMARK SMILES IDX 22 24
REMARK H PARENT
REMARK Flexibility Score: inf
ROOT
ATOM      1  C   UNL     1      17.286  32.173   9.705  1.00  0.00     0.163 C 
ENDROOT
BRANCH   1   2
ATOM      2  C   UNL     1      16.094  32.032   8.742  1.00  0.00     0.047 C 
BRANCH   2   3
ATOM      3  C   UNL     1      15.703  30.603   8.257  1.00  0.00     0.058 C 
ATOM      4  C   UNL     1      17.601  30.423   6.681  1.00  0.00     0.105 C 
ATOM      5  N   UNL     1      16.792  29.760   7.721  1.00  0.00    -0.303 NA
ATOM      6  C   UNL     1      16.071  28.608   7.146  1.00  0.00     0.084 C 
ATOM      7  C   UNL     1      14.674  29.075   6.726  1.00  0.00     0.017 C 
ATOM      8  C   UNL     1      14.520  30.477   7.298  1.00  0.00     0.020 C 
ENDBRANCH   2   3
ENDBRANCH   1   2
BRANCH   1   9
ATOM      9  O   UNL     1      16.778  32.380  11.016  1.00  0.00    -0.366 OA
BRANCH   9  10
ATOM     10  C   UNL     1      17.312  33.526  11.682  1.00  0.00     0.115 C 
ATOM     11  C   UNL     1      17.239  34.784  10.766  1.00  0.00     0.053 C 
BRANCH  10  12
ATOM     12  C   UNL     1      18.731  33.198  12.180  1.00  0.00    -0.012 A 
ATOM     13  C   UNL     1      18.911  32.113  13.066  1.00  0.00     0.007 A 
ATOM     14  C   UNL     1      19.857  33.982  11.845  1.00  0.00     0.007 A 
ATOM     15  C   UNL     1      20.170  31.820  13.593  1.00  0.00     0.000 A 
ATOM     16  C   UNL     1      21.119  33.669  12.359  1.00  0.00     0.000 A 
ATOM     17  C   UNL     1      21.275  32.593  13.235  1.00  0.00     0.000 A 
ENDBRANCH  10  12
BRANCH  10  18
ATOM     18  C   UNL     1      16.428  33.821  12.901  1.00  0.00    -0.012 A 
ATOM     19  C   UNL     1      16.929  34.582  13.983  1.00  0.00     0.008 A 
ATOM     20  C   UNL     1      15.067  33.441  12.930  1.00  0.00     0.008 A 
ATOM     21  C   UNL     1      16.112  34.922  15.065  1.00  0.00     0.021 A 
ATOM     22  C   UNL     1      14.255  33.778  14.017  1.00  0.00     0.021 A 
ATOM     23  C   UNL     1      14.774  34.519  15.084  1.00  0.00     0.041 A 
ATOM     24  Cl  UNL     1      13.748  34.949  16.437  1.00  0.00    -0.084 Cl
ENDBRANCH  10  18
ENDBRANCH   9  10
ENDBRANCH   1   9
TORSDOF 6
ENDMDL
MODEL 5
REMARK VINA RESULT:    -7.418      3.525      6.843
REMARK INTER + INTRA:         -11.796
REMARK INTER:                 -10.284
REMARK INTRA:                  -1.511
REMARK UNBOUND:                -1.776
REMARK SMILES CN1CCC[C@@H]1CCO[C@](C)(c1ccccc1)c1ccc(Cl)cc1
REMARK SMILES IDX 8 1 7 2 6 3 1 4 2 5 3 6 4 7 5 8 9 9 10 10 11 11 12 12 13 13
REMARK SMILES IDX 17 14 14 15 16 16 15 17 18 18 19 19 24 20 20 21 23 22 21 23
REMARK SMILES IDX 22 24
REMARK H PARENT
REMARK Flexibility Score: inf
ROOT
ATOM      1  C   UNL     1      18.676  34.436  15.137  1.00  0.00     0.163 C 
ENDROOT
BRANCH   1   2
ATOM      2  C   UNL     1      17.702  35.579  15.473  1.00  0.00     0.047 C 
BRANCH   2   3
ATOM      3  C   UNL     1      16.176  35.328  15.280  1.00  0.00     0.058 C 
ATOM      4  C   UNL     1      15.927  34.086  17.404  1.00  0.00     0.105 C 
ATOM      5  N   UNL     1      15.375  35.116  16.503  1.00  0.00    -0.303 NA
ATOM      6  C   UNL     1      14.068  34.680  15.977  1.00  0.00     0.084 C 
ATOM      7  C   UNL     1      14.297  33.994  14.626  1.00  0.00     0.017 C 
ATOM      8  C   UNL     1      15.752  34.260  14.271  1.00  0.00     0.020 C 
ENDBRANCH   2   3
ENDBRANCH   1   2
BRANCH   1   9
ATOM      9  O   UNL     1      19.234  34.688  13.854  1.00  0.00    -0.366 OA
BRANCH   9  10
ATOM     10  C   UNL     1      19.670  33.518  13.160  1.00  0.00     0.115 C 
ATOM     11  C   UNL     1      19.322  32.232  13.967  1.00  0.00     0.053 C 
BRANCH  10  12
ATOM     12  C   UNL     1      21.166  33.662  12.830  1.00  0.00    -0.012 A 
ATOM     13  C   UNL     1      21.679  34.940  12.518  1.00  0.00     0.007 A 
ATOM     14  C   UNL     1      22.040  32.554  12.753  1.00  0.00     0.007 A 
ATOM     15  C   UNL     1      23.015  35.107  12.151  1.00  0.00     0.000 A 
ATOM     16  C   UNL     1      23.383  32.731  12.406  1.00  0.00     0.000 A 
ATOM     17  C   UNL     1      23.868  34.004  12.101  1.00  0.00     0.000 A 
ENDBRANCH  10  12
BRANCH  10  18
ATOM     18  C   UNL     1      18.890  33.431  11.841  1.00  0.00    -0.012 A 
ATOM     19  C   UNL     1      19.046  32.314  10.988  1.00  0.00     0.008 A 
ATOM     20  C   UNL     1      17.920  34.400  11.496  1.00  0.00     0.008 A 
ATOM     21  C   UNL     1      18.286  32.186   9.821  1.00  0.00     0.021 A 
ATOM     22  C   UNL     1      17.167  34.271  10.326  1.00  0.00     0.021 A 
ATOM     23  C   UNL     1      17.347  33.165   9.488  1.00  0.00     0.041 A 
ATOM     24  Cl  UNL     1      16.391  33.004   8.029  1.00  0.00    -0.084 Cl
ENDBRANCH  10  18
ENDBRANCH   9  10
ENDBRANCH   1   9
TORSDOF 6
ENDMDL
MODEL 6
REMARK VINA RESULT:    -7.379      1.691      1.925
REMARK INTER + INTRA:         -11.742
REMARK INTER:                 -10.759
REMARK INTRA:                  -0.983
REMARK UNBOUND:                -1.776
REMARK SMILES CN1CCC[C@@H]1CCO[C@](C)(c1ccccc1)c1ccc(Cl)cc1
REMARK SMILES IDX 8 1 7 2 6 3 1 4 2 5 3 6 4 7 5 8 9 9 10 10 11 11 12 12 13 13
REMARK SMILES IDX 17 14 14 15 16 16 15 17 18 18 19 19 24 20 20 21 23 22 21 23
REMARK SMILES IDX 22 24
REMARK H PARENT
REMARK Flexibility Score: inf
ROOT
ATOM      1  C   UNL     1      21.038  34.000  13.949  1.00  0.00     0.163 C 
ENDROOT
BRANCH   1   2
ATOM      2  C   UNL     1      21.867  34.021  12.652  1.00  0.00     0.047 C 
BRANCH   2   3
ATOM      3  C   UNL     1      22.607  35.338  12.270  1.00  0.00     0.058 C 
ATOM      4  C   UNL     1      24.818  34.249  12.063  1.00  0.00     0.105 C 
ATOM      5  N   UNL     1      23.850  35.200  11.484  1.00  0.00    -0.303 NA
ATOM      6  C   UNL     1      24.411  36.564  11.500  1.00  0.00     0.084 C 
ATOM      7  C   UNL     1      23.937  37.265  12.778  1.00  0.00     0.017 C 
ATOM      8  C   UNL     1      22.887  36.346  13.385  1.00  0.00     0.020 C 
ENDBRANCH   2   3
ENDBRANCH   1   2
BRANCH   1   9
ATOM      9  O   UNL     1      19.785  34.617  13.685  1.00  0.00    -0.366 OA
BRANCH   9  10
ATOM     10  C   UNL     1      18.670  33.724  13.720  1.00  0.00     0.115 C 
ATOM     11  C   UNL     1      19.094  32.327  14.261  1.00  0.00     0.053 C 
BRANCH  10  12
ATOM     12  C   UNL     1      18.019  33.682  12.325  1.00  0.00    -0.012 A 
ATOM     13  C   UNL     1      18.457  32.714  11.395  1.00  0.00     0.007 A 
ATOM     14  C   UNL     1      17.051  34.621  11.907  1.00  0.00     0.007 A 
ATOM     15  C   UNL     1      17.940  32.681  10.099  1.00  0.00     0.000 A 
ATOM     16  C   UNL     1      16.521  34.569  10.615  1.00  0.00     0.000 A 
ATOM     17  C   UNL     1      16.969  33.604   9.710  1.00  0.00     0.000 A 
ENDBRANCH  10  12
BRANCH  10  18
ATOM     18  C   UNL     1      17.644  34.285  14.715  1.00  0.00    -0.012 A 
ATOM     19  C   UNL     1      16.325  33.776  14.748  1.00  0.00     0.008 A 
ATOM     20  C   UNL     1      18.014  35.238  15.691  1.00  0.00     0.008 A 
ATOM     21  C   UNL     1      15.403  34.225  15.699  1.00  0.00     0.021 A 
ATOM     22  C   UNL     1      17.088  35.688  16.636  1.00  0.00     0.021 A 
ATOM     23  C   UNL     1      15.783  35.183  16.643  1.00  0.00     0.041 A 
ATOM     24  Cl  UNL     1      14.630  35.742  17.838  1.00  0.00    -0.084 Cl
ENDBRANCH  10  18
ENDBRANCH   9  10
ENDBRANCH   1   9
TORSDOF 6
ENDMDL
MODEL 7
REMARK VINA RESULT:    -7.366      1.424      1.908
REMARK INTER + INTRA:         -11.725
REMARK INTER:                 -10.403
REMARK INTRA:                  -1.322
REMARK UNBOUND:                -1.776
REMARK SMILES CN1CCC[C@@H]1CCO[C@](C)(c1ccccc1)c1ccc(Cl)cc1
REMARK SMILES IDX 8 1 7 2 6 3 1 4 2 5 3 6 4 7 5 8 9 9 10 10 11 11 12 12 13 13
REMARK SMILES IDX 17 14 14 15 16 16 15 17 18 18 19 19 24 20 20 21 23 22 21 23
REMARK SMILES IDX 22 24
REMARK H PARENT
REMARK Flexibility Score: inf
ROOT
ATOM      1  C   UNL     1      21.808  33.340  12.690  1.00  0.00     0.163 C 
ENDROOT
BRANCH   1   2
ATOM      2  C   UNL     1      22.839  33.958  13.651  1.00  0.00     0.047 C 
BRANCH   2   3
ATOM      3  C   UNL     1      23.819  35.033  13.092  1.00  0.00     0.058 C 
ATOM      4  C   UNL     1      22.512  36.941  13.967  1.00  0.00     0.105 C 
ATOM      5  N   UNL     1      23.845  36.336  13.786  1.00  0.00    -0.303 NA
ATOM      6  C   UNL     1      24.664  37.176  12.891  1.00  0.00     0.084 C 
ATOM      7  C   UNL     1      24.517  36.644  11.462  1.00  0.00     0.017 C 
ATOM      8  C   UNL     1      23.777  35.320  11.591  1.00  0.00     0.020 C 
ENDBRANCH   2   3
ENDBRANCH   1   2
BRANCH   1   9
ATOM      9  O   UNL     1      20.629  34.133  12.732  1.00  0.00    -0.366 OA
BRANCH   9  10
ATOM     10  C   UNL     1      19.433  33.397  12.997  1.00  0.00     0.115 C 
ATOM     11  C   UNL     1      19.764  31.979  13.547  1.00  0.00     0.053 C 
BRANCH  10  12
ATOM     12  C   UNL     1      18.562  33.387  11.727  1.00  0.00    -0.012 A 
ATOM     13  C   UNL     1      18.751  32.360  10.776  1.00  0.00     0.007 A 
ATOM     14  C   UNL     1      17.627  34.405  11.435  1.00  0.00     0.007 A 
ATOM     15  C   UNL     1      18.029  32.349   9.582  1.00  0.00     0.000 A 
ATOM     16  C   UNL     1      16.891  34.375  10.248  1.00  0.00     0.000 A 
ATOM     17  C   UNL     1      17.095  33.351   9.320  1.00  0.00     0.000 A 
ENDBRANCH  10  12
BRANCH  10  18
ATOM     18  C   UNL     1      18.662  34.128  14.105  1.00  0.00    -0.012 A 
ATOM     19  C   UNL     1      17.478  33.571  14.642  1.00  0.00     0.008 A 
ATOM     20  C   UNL     1      19.167  35.310  14.694  1.00  0.00     0.008 A 
ATOM     21  C   UNL     1      16.808  34.188  15.704  1.00  0.00     0.021 A 
ATOM     22  C   UNL     1      18.492  35.926  15.751  1.00  0.00     0.021 A 
ATOM     23  C   UNL     1      17.313  35.366  16.258  1.00  0.00     0.041 A 
ATOM     24  Cl  UNL     1      16.477  36.137  17.591  1.00  0.00    -0.084 Cl
ENDBRANCH  10  18
ENDBRANCH   9  10
ENDBRANCH   1   9
TORSDOF 6
ENDMDL
MODEL 8
REMARK VINA RESULT:    -7.156      3.840      7.279
REMARK INTER + INTRA:         -11.442
REMARK INTER:                 -10.096
REMARK INTRA:                  -1.347
REMARK UNBOUND:                -1.776
REMARK SMILES CN1CCC[C@@H]1CCO[C@](C)(c1ccccc1)c1ccc(Cl)cc1
REMARK SMILES IDX 8 1 7 2 6 3 1 4 2 5 3 6 4 7 5 8 9 9 10 10 11 11 12 12 13 13
REMARK SMILES IDX 17 14 14 15 16 16 15 17 18 18 19 19 24 20 20 21 23 22 21 23
REMARK SMILES IDX 22 24
REMARK H PARENT
REMARK Flexibility Score: inf
ROOT
ATOM      1  C   UNL     1      20.968  32.518  12.733  1.00  0.00     0.163 C 
ENDROOT
BRANCH   1   2
ATOM      2  C   UNL     1      19.885  33.191  11.872  1.00  0.00     0.047 C 
BRANCH   2   3
ATOM      3  C   UNL     1      18.393  32.997  12.277  1.00  0.00     0.058 C 
ATOM      4  C   UNL     1      17.570  33.015   9.944  1.00  0.00     0.105 C 
ATOM      5  N   UNL     1      17.506  32.375  11.272  1.00  0.00    -0.303 NA
ATOM      6  C   UNL     1      16.162  32.554  11.855  1.00  0.00     0.084 C 
ATOM      7  C   UNL     1      16.185  33.801  12.745  1.00  0.00     0.017 C 
ATOM      8  C   UNL     1      17.649  34.202  12.853  1.00  0.00     0.020 C 
ENDBRANCH   2   3
ENDBRANCH   1   2
BRANCH   1   9
ATOM      9  O   UNL     1      22.234  32.778  12.142  1.00  0.00    -0.366 OA
BRANCH   9  10
ATOM     10  C   UNL     1      23.204  33.319  13.041  1.00  0.00     0.115 C 
ATOM     11  C   UNL     1      22.929  32.854  14.501  1.00  0.00     0.053 C 
BRANCH  10  12
ATOM     12  C   UNL     1      23.244  34.849  12.870  1.00  0.00    -0.012 A 
ATOM     13  C   UNL     1      22.796  35.667  13.931  1.00  0.00     0.007 A 
ATOM     14  C   UNL     1      23.642  35.472  11.667  1.00  0.00     0.007 A 
ATOM     15  C   UNL     1      22.755  37.056  13.795  1.00  0.00     0.000 A 
ATOM     16  C   UNL     1      23.619  36.864  11.545  1.00  0.00     0.000 A 
ATOM     17  C   UNL     1      23.172  37.655  12.606  1.00  0.00     0.000 A 
ENDBRANCH  10  12
BRANCH  10  18
ATOM     18  C   UNL     1      24.577  32.754  12.653  1.00  0.00    -0.012 A 
ATOM     19  C   UNL     1      24.767  32.130  11.397  1.00  0.00     0.008 A 
ATOM     20  C   UNL     1      25.708  32.937  13.481  1.00  0.00     0.008 A 
ATOM     21  C   UNL     1      26.029  31.679  11.000  1.00  0.00     0.021 A 
ATOM     22  C   UNL     1      26.966  32.480  13.083  1.00  0.00     0.021 A 
ATOM     23  C   UNL     1      27.130  31.852  11.843  1.00  0.00     0.041 A 
ATOM     24  Cl  UNL     1      28.713  31.291  11.344  1.00  0.00    -0.084 Cl
ENDBRANCH  10  18
ENDBRANCH   9  10
ENDBRANCH   1   9
TORSDOF 6
ENDMDL
MODEL 9
REMARK VINA RESULT:    -7.067      2.468      3.481
REMARK INTER + INTRA:         -11.322
REMARK INTER:                  -9.771
REMARK INTRA:                  -1.550
REMARK UNBOUND:                -1.776
REMARK SMILES CN1CCC[C@@H]1CCO[C@](C)(c1ccccc1)c1ccc(Cl)cc1
REMARK SMILES IDX 8 1 7 2 6 3 1 4 2 5 3 6 4 7 5 8 9 9 10 10 11 11 12 12 13 13
REMARK SMILES IDX 17 14 14 15 16 16 15 17 18 18 19 19 24 20 20 21 23 22 21 23
REMARK SMILES IDX 22 24
REMARK H PARENT
REMARK Flexibility Score: inf
ROOT
ATOM      1  C   UNL     1      20.336  33.674  12.218  1.00  0.00     0.163 C 
ENDROOT
BRANCH   1   2
ATOM      2  C   UNL     1      21.432  33.955  13.260  1.00  0.00     0.047 C 
BRANCH   2   3
ATOM      3  C   UNL     1      20.996  34.298  14.717  1.00  0.00     0.058 C 
ATOM      4  C   UNL     1      23.281  34.889  15.455  1.00  0.00     0.105 C 
ATOM      5  N   UNL     1      21.849  35.245  15.463  1.00  0.00    -0.303 NA
ATOM      6  C   UNL     1      21.316  35.167  16.836  1.00  0.00     0.084 C 
ATOM      7  C   UNL     1      20.703  33.777  17.037  1.00  0.00     0.017 C 
ATOM      8  C   UNL     1      20.682  33.134  15.658  1.00  0.00     0.020 C 
ENDBRANCH   2   3
ENDBRANCH   1   2
BRANCH   1   9
ATOM      9  O   UNL     1      19.167  34.388  12.598  1.00  0.00    -0.366 OA
BRANCH   9  10
ATOM     10  C   UNL     1      17.968  33.610  12.577  1.00  0.00     0.115 C 
ATOM     11  C   UNL     1      18.267  32.121  12.921  1.00  0.00     0.053 C 
BRANCH  10  12
ATOM     12  C   UNL     1      17.268  33.809  11.220  1.00  0.00    -0.012 A 
ATOM     13  C   UNL     1      17.306  32.765  10.271  1.00  0.00     0.007 A 
ATOM     14  C   UNL     1      16.648  35.024  10.853  1.00  0.00     0.007 A 
ATOM     15  C   UNL     1      16.740  32.926   9.005  1.00  0.00     0.000 A 
ATOM     16  C   UNL     1      16.063  35.172   9.592  1.00  0.00     0.000 A 
ATOM     17  C   UNL     1      16.114  34.126   8.668  1.00  0.00     0.000 A 
ENDBRANCH  10  12
BRANCH  10  18
ATOM     18  C   UNL     1      17.041  34.137  13.681  1.00  0.00    -0.012 A 
ATOM     19  C   UNL     1      15.671  33.788  13.694  1.00  0.00     0.008 A 
ATOM     20  C   UNL     1      17.547  34.886  14.768  1.00  0.00     0.008 A 
ATOM     21  C   UNL     1      14.832  34.198  14.735  1.00  0.00     0.021 A 
ATOM     22  C   UNL     1      16.704  35.299  15.803  1.00  0.00     0.021 A 
ATOM     23  C   UNL     1      15.347  34.956  15.789  1.00  0.00     0.041 A 
ATOM     24  Cl  UNL     1      14.298  35.467  17.097  1.00  0.00    -0.084 Cl
ENDBRANCH  10  18
ENDBRANCH   9  10
ENDBRANCH   1   9
TORSDOF 6
ENDMDL
MODEL 10
REMARK VINA RESULT:    -7.007      3.010      4.978
REMARK INTER + INTRA:         -11.240
REMARK INTER:                 -10.011
REMARK INTRA:                  -1.229
REMARK UNBOUND:                -1.776
REMARK SMILES CN1CCC[C@@H]1CCO[C@](C)(c1ccccc1)c1ccc(Cl)cc1
REMARK SMILES IDX 8 1 7 2 6 3 1 4 2 5 3 6 4 7 5 8 9 9 10 10 11 11 12 12 13 13
REMARK SMILES IDX 17 14 14 15 16 16 15 17 18 18 19 19 24 20 20 21 23 22 21 23
REMARK SMILES IDX 22 24
REMARK H PARENT
REMARK Flexibility Score: inf
ROOT
ATOM      1  C   UNL     1      20.238  34.253  16.751  1.00  0.00     0.163 C 
ENDROOT
BRANCH   1   2
ATOM      2  C   UNL     1      21.325  33.233  16.369  1.00  0.00     0.047 C 
BRANCH   2   3
ATOM      3  C   UNL     1      21.754  33.136  14.874  1.00  0.00     0.058 C 
ATOM      4  C   UNL     1      24.170  33.009  15.388  1.00  0.00     0.105 C 
ATOM      5  N   UNL     1      23.046  32.478  14.593  1.00  0.00    -0.303 NA
ATOM      6  C   UNL     1      23.262  32.760  13.161  1.00  0.00     0.084 C 
ATOM      7  C   UNL     1      22.546  34.069  12.815  1.00  0.00     0.017 C 
ATOM      8  C   UNL     1      21.706  34.414  14.036  1.00  0.00     0.020 C 
ENDBRANCH   2   3
ENDBRANCH   1   2
BRANCH   1   9
ATOM      9  O   UNL     1      18.985  33.759  16.296  1.00  0.00    -0.366 OA
BRANCH   9  10
ATOM     10  C   UNL     1      18.176  34.730  15.629  1.00  0.00     0.115 C 
ATOM     11  C   UNL     1      19.016  35.983  15.244  1.00  0.00     0.053 C 
BRANCH  10  12
ATOM     12  C   UNL     1      16.951  35.045  16.507  1.00  0.00    -0.012 A 
ATOM     13  C   UNL     1      17.072  36.013  17.529  1.00  0.00     0.007 A 
ATOM     14  C   UNL     1      15.725  34.354  16.382  1.00  0.00     0.007 A 
ATOM     15  C   UNL     1      16.006  36.284  18.388  1.00  0.00     0.000 A 
ATOM     16  C   UNL     1      14.654  34.646  17.232  1.00  0.00     0.000 A 
ATOM     17  C   UNL     1      14.796  35.606  18.237  1.00  0.00     0.000 A 
ENDBRANCH  10  12
BRANCH  10  18
ATOM     18  C   UNL     1      17.681  34.112  14.314  1.00  0.00    -0.012 A 
ATOM     19  C   UNL     1      16.750  34.802  13.503  1.00  0.00     0.008 A 
ATOM     20  C   UNL     1      18.220  32.900  13.824  1.00  0.00     0.008 A 
ATOM     21  C   UNL     1      16.350  34.286  12.266  1.00  0.00     0.021 A 
ATOM     22  C   UNL     1      17.813  32.385  12.590  1.00  0.00     0.021 A 
ATOM     23  C   UNL     1      16.879  33.076  11.810  1.00  0.00     0.041 A 
ATOM     24  Cl  UNL     1      16.382  32.431  10.259  1.00  0.00    -0.084 Cl
ENDBRANCH  10  18
ENDBRANCH   9  10
ENDBRANCH   1   9
TORSDOF 6
ENDMDL
MODEL 11
REMARK VINA RESULT:    -7.006      3.231      6.121
REMARK INTER + INTRA:         -11.239
REMARK INTER:                 -10.217
REMARK INTRA:                  -1.022
REMARK UNBOUND:                -1.776
REMARK SMILES CN1CCC[C@@H]1CCO[C@](C)(c1ccccc1)c1ccc(Cl)cc1
REMARK SMILES IDX 8 1 7 2 6 3 1 4 2 5 3 6 4 7 5 8 9 9 10 10 11 11 12 12 13 13
REMARK SMILES IDX 17 14 14 15 16 16 15 17 18 18 19 19 24 20 20 21 23 22 21 23
REMARK SMILES IDX 22 24
REMARK H PARENT
REMARK Flexibility Score: inf
ROOT
ATOM      1  C   UNL     1      18.831  32.345  11.254  1.00  0.00     0.163 C 
ENDROOT
BRANCH   1   2
ATOM      2  C   UNL     1      18.621  32.696   9.770  1.00  0.00     0.047 C 
BRANCH   2   3
ATOM      3  C   UNL     1      17.194  32.531   9.167  1.00  0.00     0.058 C 
ATOM      4  C   UNL     1      17.910  30.893   7.458  1.00  0.00     0.105 C 
ATOM      5  N   UNL     1      16.906  31.257   8.476  1.00  0.00    -0.303 NA
ATOM      6  C   UNL     1      15.603  31.511   7.833  1.00  0.00     0.084 C 
ATOM      7  C   UNL     1      15.486  33.014   7.558  1.00  0.00     0.017 C 
ATOM      8  C   UNL     1      16.661  33.657   8.281  1.00  0.00     0.020 C 
ENDBRANCH   2   3
ENDBRANCH   1   2
BRANCH   1   9
ATOM      9  O   UNL     1      19.301  33.507  11.924  1.00  0.00    -0.366 OA
BRANCH   9  10
ATOM     10  C   UNL     1      19.717  33.281  13.273  1.00  0.00     0.115 C 
ATOM     11  C   UNL     1      19.496  31.794  13.680  1.00  0.00     0.053 C 
BRANCH  10  12
ATOM     12  C   UNL     1      19.007  34.292  14.190  1.00  0.00    -0.012 A 
ATOM     13  C   UNL     1      17.607  34.201  14.355  1.00  0.00     0.007 A 
ATOM     14  C   UNL     1      19.686  35.358  14.821  1.00  0.00     0.007 A 
ATOM     15  C   UNL     1      16.914  35.136  15.126  1.00  0.00     0.000 A 
ATOM     16  C   UNL     1      18.989  36.278  15.610  1.00  0.00     0.000 A 
ATOM     17  C   UNL     1      17.605  36.170  15.758  1.00  0.00     0.000 A 
ENDBRANCH  10  12
BRANCH  10  18
ATOM     18  C   UNL     1      21.229  33.536  13.351  1.00  0.00    -0.012 A 
ATOM     19  C   UNL     1      22.034  32.801  14.252  1.00  0.00     0.008 A 
ATOM     20  C   UNL     1      21.871  34.423  12.458  1.00  0.00     0.008 A 
ATOM     21  C   UNL     1      23.422  32.969  14.280  1.00  0.00     0.021 A 
ATOM     22  C   UNL     1      23.258  34.593  12.494  1.00  0.00     0.021 A 
ATOM     23  C   UNL     1      24.035  33.867  13.403  1.00  0.00     0.041 A 
ATOM     24  Cl  UNL     1      25.774  34.075  13.434  1.00  0.00    -0.084 Cl
ENDBRANCH  10  18
ENDBRANCH   9  10
ENDBRANCH   1   9
TORSDOF 6
ENDMDL
MODEL 12
REMARK VINA RESULT:    -6.971      3.501      6.819
REMARK INTER + INTRA:         -11.193
REMARK INTER:                  -9.901
REMARK INTRA:                  -1.292
REMARK UNBOUND:                -1.776
REMARK SMILES CN1CCC[C@@H]1CCO[C@](C)(c1ccccc1)c1ccc(Cl)cc1
REMARK SMILES IDX 8 1 7 2 6 3 1 4 2 5 3 6 4 7 5 8 9 9 10 10 11 11 12 12 13 13
REMARK SMILES IDX 17 14 14 15 16 16 15 17 18 18 19 19 24 20 20 21 23 22 21 23
REMARK SMILES IDX 22 24
REMARK H PARENT
REMARK Flexibility Score: inf
ROOT
ATOM      1  C   UNL     1      18.898  33.805  15.445  1.00  0.00     0.163 C 
ENDROOT
BRANCH   1   2
ATOM      2  C   UNL     1      17.377  34.041  15.486  1.00  0.00     0.047 C 
BRANCH   2   3
ATOM      3  C   UNL     1      16.749  34.575  16.809  1.00  0.00     0.058 C 
ATOM      4  C   UNL     1      14.571  35.113  15.768  1.00  0.00     0.105 C 
ATOM      5  N   UNL     1      15.276  34.516  16.917  1.00  0.00    -0.303 NA
ATOM      6  C   UNL     1      14.999  35.294  18.140  1.00  0.00     0.084 C 
ATOM      7  C   UNL     1      16.120  36.323  18.321  1.00  0.00     0.017 C 
ATOM      8  C   UNL     1      17.184  35.957  17.296  1.00  0.00     0.020 C 
ENDBRANCH   2   3
ENDBRANCH   1   2
BRANCH   1   9
ATOM      9  O   UNL     1      19.389  34.288  14.202  1.00  0.00    -0.366 OA
BRANCH   9  10
ATOM     10  C   UNL     1      19.872  33.269  13.324  1.00  0.00     0.115 C 
ATOM     11  C   UNL     1      19.753  31.864  13.985  1.00  0.00     0.053 C 
BRANCH  10  12
ATOM     12  C   UNL     1      21.300  33.630  12.877  1.00  0.00    -0.012 A 
ATOM     13  C   UNL     1      22.286  32.619  12.856  1.00  0.00     0.007 A 
ATOM     14  C   UNL     1      21.689  34.949  12.557  1.00  0.00     0.007 A 
ATOM     15  C   UNL     1      23.608  32.915  12.520  1.00  0.00     0.000 A 
ATOM     16  C   UNL     1      23.009  35.235  12.199  1.00  0.00     0.000 A 
ATOM     17  C   UNL     1      23.969  34.220  12.186  1.00  0.00     0.000 A 
ENDBRANCH  10  12
BRANCH  10  18
ATOM     18  C   UNL     1      18.969  33.247  12.083  1.00  0.00    -0.012 A 
ATOM     19  C   UNL     1      18.007  34.263  11.878  1.00  0.00     0.008 A 
ATOM     20  C   UNL     1      19.147  32.284  11.063  1.00  0.00     0.008 A 
ATOM     21  C   UNL     1      17.231  34.297  10.715  1.00  0.00     0.021 A 
ATOM     22  C   UNL     1      18.365  32.318   9.905  1.00  0.00     0.021 A 
ATOM     23  C   UNL     1      17.408  33.324   9.728  1.00  0.00     0.041 A 
ATOM     24  Cl  UNL     1      16.439  33.368   8.269  1.00  0.00    -0.084 Cl
ENDBRANCH  10  18
ENDBRANCH   9  10
ENDBRANCH   1   9
TORSDOF 6
ENDMDL
MODEL 13
REMARK VINA RESULT:    -6.961      1.860      2.840
REMARK INTER + INTRA:         -11.179
REMARK INTER:                  -9.636
REMARK INTRA:                  -1.543
REMARK UNBOUND:                -1.776
REMARK SMILES CN1CCC[C@@H]1CCO[C@](C)(c1ccccc1)c1ccc(Cl)cc1
REMARK SMILES IDX 8 1 7 2 6 3 1 4 2 5 3 6 4 7 5 8 9 9 10 10 11 11 12 12 13 13
REMARK SMILES IDX 17 14 14 15 16 16 15 17 18 18 19 19 24 20 20 21 23 22 21 23
REMARK SMILES IDX 22 24
REMARK H PARENT
REMARK Flexibility Score: inf
ROOT
ATOM      1  C   UNL     1      21.882  33.447  12.581  1.00  0.00     0.163 C 
ENDROOT
BRANCH   1   2
ATOM      2  C   UNL     1      22.886  34.418  13.227  1.00  0.00     0.047 C 
BRANCH   2   3
ATOM      3  C   UNL     1      23.141  34.303  14.761  1.00  0.00     0.058 C 
ATOM      4  C   UNL     1      25.326  33.174  14.494  1.00  0.00     0.105 C 
ATOM      5  N   UNL     1      24.550  34.214  15.197  1.00  0.00    -0.303 NA
ATOM      6  C   UNL     1      24.437  33.881  16.629  1.00  0.00     0.084 C 
ATOM      7  C   UNL     1      23.123  33.124  16.846  1.00  0.00     0.017 C 
ATOM      8  C   UNL     1      22.361  33.239  15.534  1.00  0.00     0.020 C 
ENDBRANCH   2   3
ENDBRANCH   1   2
BRANCH   1   9
ATOM      9  O   UNL     1      20.641  34.124  12.432  1.00  0.00    -0.366 OA
BRANCH   9  10
ATOM     10  C   UNL     1      19.496  33.332  12.753  1.00  0.00     0.115 C 
ATOM     11  C   UNL     1      19.917  31.894  13.180  1.00  0.00     0.053 C 
BRANCH  10  12
ATOM     12  C   UNL     1      18.515  33.369  11.567  1.00  0.00    -0.012 A 
ATOM     13  C   UNL     1      18.558  32.330  10.611  1.00  0.00     0.007 A 
ATOM     14  C   UNL     1      17.618  34.439  11.351  1.00  0.00     0.007 A 
ATOM     15  C   UNL     1      17.732  32.357   9.486  1.00  0.00     0.000 A 
ATOM     16  C   UNL     1      16.778  34.448  10.235  1.00  0.00     0.000 A 
ATOM     17  C   UNL     1      16.838  33.412   9.301  1.00  0.00     0.000 A 
ENDBRANCH  10  12
BRANCH  10  18
ATOM     18  C   UNL     1      18.807  33.966  13.969  1.00  0.00    -0.012 A 
ATOM     19  C   UNL     1      19.325  35.145  14.553  1.00  0.00     0.008 A 
ATOM     20  C   UNL     1      17.585  33.459  14.467  1.00  0.00     0.008 A 
ATOM     21  C   UNL     1      18.665  35.775  15.612  1.00  0.00     0.021 A 
ATOM     22  C   UNL     1      16.932  34.089  15.530  1.00  0.00     0.021 A 
ATOM     23  C   UNL     1      17.469  35.247  16.103  1.00  0.00     0.041 A 
ATOM     24  Cl  UNL     1      16.639  36.038  17.428  1.00  0.00    -0.084 Cl
ENDBRANCH  10  18
ENDBRANCH   9  10
ENDBRANCH   1   9
TORSDOF 6
ENDMDL
MODEL 14
REMARK VINA RESULT:    -6.957      1.657      2.569
REMARK INTER + INTRA:         -11.173
REMARK INTER:                  -9.894
REMARK INTRA:                  -1.279
REMARK UNBOUND:                -1.776
REMARK SMILES CN1CCC[C@@H]1CCO[C@](C)(c1ccccc1)c1ccc(Cl)cc1
REMARK SMILES IDX 8 1 7 2 6 3 1 4 2 5 3 6 4 7 5 8 9 9 10 10 11 11 12 12 13 13
REMARK SMILES IDX 17 14 14 15 16 16 15 17 18 18 19 19 24 20 20 21 23 22 21 23
REMARK SMILES IDX 22 24
REMARK H PARENT
REMARK Flexibility Score: inf
ROOT
ATOM      1  C   UNL     1      21.944  33.885  13.746  1.00  0.00     0.163 C 
ENDROOT
BRANCH   1   2
ATOM      2  C   UNL     1      22.950  33.952  12.584  1.00  0.00     0.047 C 
BRANCH   2   3
ATOM      3  C   UNL     1      24.199  33.020  12.634  1.00  0.00     0.058 C 
ATOM      4  C   UNL     1      25.681  34.755  13.587  1.00  0.00     0.105 C 
ATOM      5  N   UNL     1      25.236  33.349  13.632  1.00  0.00    -0.303 NA
ATOM      6  C   UNL     1      26.350  32.454  13.265  1.00  0.00     0.084 C 
ATOM      7  C   UNL     1      26.259  32.162  11.764  1.00  0.00     0.017 C 
ATOM      8  C   UNL     1      24.916  32.721  11.317  1.00  0.00     0.020 C 
ENDBRANCH   2   3
ENDBRANCH   1   2
BRANCH   1   9
ATOM      9  O   UNL     1      20.662  34.243  13.246  1.00  0.00    -0.366 OA
BRANCH   9  10
ATOM     10  C   UNL     1      19.586  33.462  13.770  1.00  0.00     0.115 C 
ATOM     11  C   UNL     1      20.098  32.081  14.275  1.00  0.00     0.053 C 
BRANCH  10  12
ATOM     12  C   UNL     1      18.476  33.367  12.708  1.00  0.00    -0.012 A 
ATOM     13  C   UNL     1      18.676  33.978  11.451  1.00  0.00     0.007 A 
ATOM     14  C   UNL     1      17.228  32.754  12.962  1.00  0.00     0.007 A 
ATOM     15  C   UNL     1      17.671  33.972  10.482  1.00  0.00     0.000 A 
ATOM     16  C   UNL     1      16.234  32.731  11.979  1.00  0.00     0.000 A 
ATOM     17  C   UNL     1      16.454  33.344  10.744  1.00  0.00     0.000 A 
ENDBRANCH  10  12
BRANCH  10  18
ATOM     18  C   UNL     1      19.022  34.194  14.995  1.00  0.00    -0.012 A 
ATOM     19  C   UNL     1      18.376  35.444  14.849  1.00  0.00     0.008 A 
ATOM     20  C   UNL     1      19.030  33.597  16.276  1.00  0.00     0.008 A 
ATOM     21  C   UNL     1      17.790  36.086  15.944  1.00  0.00     0.021 A 
ATOM     22  C   UNL     1      18.449  34.244  17.369  1.00  0.00     0.021 A 
ATOM     23  C   UNL     1      17.828  35.488  17.206  1.00  0.00     0.041 A 
ATOM     24  Cl  UNL     1      17.091  36.288  18.579  1.00  0.00    -0.084 Cl
ENDBRANCH  10  18
ENDBRANCH   9  10
ENDBRANCH   1   9
TORSDOF 6
ENDMDL
MODEL 15
REMARK VINA RESULT:    -6.943      1.873      2.634
REMARK INTER + INTRA:         -11.155
REMARK INTER:                  -9.104
REMARK INTRA:                  -2.051
REMARK UNBOUND:                -1.776
REMARK SMILES CN1CCC[C@@H]1CCO[C@](C)(c1ccccc1)c1ccc(Cl)cc1
REMARK SMILES IDX 8 1 7 2 6 3 1 4 2 5 3 6 4 7 5 8 9 9 10 10 11 11 12 12 13 13
REMARK SMILES IDX 17 14 14 15 16 16 15 17 18 18 19 19 24 20 20 21 23 22 21 23
REMARK SMILES IDX 22 24
REMARK H PARENT
REMARK Flexibility Score: inf
ROOT
ATOM      1  C   UNL     1      21.738  33.538  13.738  1.00  0.00     0.163 C 
ENDROOT
BRANCH   1   2
ATOM      2  C   UNL     1      22.621  34.380  14.675  1.00  0.00     0.047 C 
BRANCH   2   3
ATOM      3  C   UNL     1      21.983  34.947  15.980  1.00  0.00     0.058 C 
ATOM      4  C   UNL     1      23.728  36.669  16.300  1.00  0.00     0.105 C 
ATOM      5  N   UNL     1      22.287  36.353  16.314  1.00  0.00    -0.303 NA
ATOM      6  C   UNL     1      21.751  36.496  17.681  1.00  0.00     0.084 C 
ATOM      7  C   UNL     1      21.792  35.124  18.361  1.00  0.00     0.017 C 
ATOM      8  C   UNL     1      22.145  34.131  17.263  1.00  0.00     0.020 C 
ENDBRANCH   2   3
ENDBRANCH   1   2
BRANCH   1   9
ATOM      9  O   UNL     1      20.526  34.246  13.513  1.00  0.00    -0.366 OA
BRANCH   9  10
ATOM     10  C   UNL     1      19.352  33.560  13.954  1.00  0.00     0.115 C 
ATOM     11  C   UNL     1      19.698  32.119  14.431  1.00  0.00     0.053 C 
BRANCH  10  12
ATOM     12  C   UNL     1      18.294  33.611  12.837  1.00  0.00    -0.012 A 
ATOM     13  C   UNL     1      18.705  33.908  11.519  1.00  0.00     0.007 A 
ATOM     14  C   UNL     1      16.914  33.445  13.085  1.00  0.00     0.007 A 
ATOM     15  C   UNL     1      17.772  34.027  10.487  1.00  0.00     0.000 A 
ATOM     16  C   UNL     1      15.987  33.544  12.044  1.00  0.00     0.000 A 
ATOM     17  C   UNL     1      16.415  33.840  10.748  1.00  0.00     0.000 A 
ENDBRANCH  10  12
BRANCH  10  18
ATOM     18  C   UNL     1      18.799  34.306  15.177  1.00  0.00    -0.012 A 
ATOM     19  C   UNL     1      18.525  33.610  16.377  1.00  0.00     0.008 A 
ATOM     20  C   UNL     1      18.656  35.712  15.176  1.00  0.00     0.008 A 
ATOM     21  C   UNL     1      18.094  34.288  17.521  1.00  0.00     0.021 A 
ATOM     22  C   UNL     1      18.218  36.385  16.320  1.00  0.00     0.021 A 
ATOM     23  C   UNL     1      17.938  35.676  17.493  1.00  0.00     0.041 A 
ATOM     24  Cl  UNL     1      17.402  36.528  18.927  1.00  0.00    -0.084 Cl
ENDBRANCH  10  18
ENDBRANCH   9  10
ENDBRANCH   1   9
TORSDOF 6
ENDMDL
