MODEL 1
REMARK VINA RESULT:    -6.043      0.000      0.000
REMARK INTER + INTRA:          -7.831
REMARK INTER:                  -7.456
REMARK INTRA:                  -0.375
REMARK UNBOUND:                -0.375
REMARK SMILES Nc1ccn([C@@H]2O[C@H](CO)[C@@H](O)[C@@H]2O)c(=O)n1
REMARK SMILES IDX 6 1 7 2 8 3 11 4 13 5 5 6 2 7 17 8 3 9 15 10 4 11 16 12 1 13
REMARK SMILES IDX 14 16 9 18 10 19 12 21
REMARK H PARENT 1 14 1 15 14 17 10 20 12 22
REMARK Flexibility Score: inf
ROOT
ATOM      1  C   UNL     1      18.416  32.454  12.504  1.00  0.00     0.255 C 
ATOM      2  O   UNL     1      18.008  33.111  13.682  1.00  0.00    -0.347 OA
ATOM      3  C   UNL     1      19.106  33.106  14.571  1.00  0.00     0.178 C 
ATOM      4  C   UNL     1      20.349  32.555  13.848  1.00  0.00     0.179 C 
ATOM      5  C   UNL     1      19.935  32.542  12.399  1.00  0.00     0.196 C 
ENDROOT
BRANCH   1   6
ATOM      6  N   UNL     1      17.738  33.007  11.312  1.00  0.00    -0.270 N 
ATOM      7  C   UNL     1      16.402  34.077   9.142  1.00  0.00     0.130 A 
ATOM      8  N   UNL     1      17.039  32.883   9.048  1.00  0.00    -0.176 NA
ATOM      9  C   UNL     1      16.410  34.765  10.353  1.00  0.00     0.065 A 
ATOM     10  C   UNL     1      17.695  32.341  10.108  1.00  0.00     0.351 A 
ATOM     11  C   UNL     1      17.084  34.204  11.435  1.00  0.00     0.097 A 
ATOM     12  O   UNL     1      18.249  31.218   9.967  1.00  0.00    -0.246 OA
BRANCH   7  13
ATOM     13  N   UNL     1      15.726  34.613   8.006  1.00  0.00    -0.383 N 
ATOM     14  H   UNL     1      15.251  33.977   7.327  1.00  0.00     0.158 HD
ATOM     15  H   UNL     1      15.694  35.644   7.835  1.00  0.00     0.158 HD
ENDBRANCH   7  13
ENDBRANCH   1   6
BRANCH   5  16
ATOM     16  O   UNL     1      20.342  33.738  11.784  1.00  0.00    -0.386 OA
ATOM     17  H   UNL     1      19.542  34.117  11.335  1.00  0.00     0.211 HD
ENDBRANCH   5  16
BRANCH   3  18
ATOM     18  C   UNL     1      19.332  34.530  15.091  1.00  0.00     0.191 C 
BRANCH  18  19
ATOM     19  O   UNL     1      20.405  35.124  14.414  1.00  0.00    -0.394 OA
ATOM     20  H   UNL     1      20.184  36.088  14.341  1.00  0.00     0.210 HD
ENDBRANCH  18  19
ENDBRANCH   3  18
BRANCH   4  21
ATOM     21  O   UNL     1      20.618  31.243  14.273  1.00  0.00    -0.387 OA
ATOM     22  H   UNL     1      20.495  31.236  15.258  1.00  0.00     0.211 HD
ENDBRANCH   4  21
TORSDOF 6
ENDMDL
MODEL 2
REMARK VINA RESULT:    -5.706      3.032      5.062
REMARK INTER + INTRA:          -7.415
REMARK INTER:                  -7.178
REMARK INTRA:                  -0.236
REMARK UNBOUND:                -0.375
REMARK SMILES Nc1ccn([C@@H]2O[C@H](CO)[C@@H](O)[C@@H]2O)c(=O)n1
REMARK SMILES IDX 6 1 7 2 8 3 11 4 13 5 5 6 2 7 17 8 3 9 15 10 4 11 16 12 1 13
REMARK SMILES IDX 14 16 9 18 10 19 12 21
REMARK H PARENT 1 14 1 15 14 17 10 20 12 22
REMARK Flexibility Score: inf
ROOT
ATOM      1  C   UNL     1      18.397  34.333  13.281  1.00  0.00     0.255 C 
ATOM      2  O   UNL     1      17.849  34.316  11.982  1.00  0.00    -0.347 OA
ATOM      3  C   UNL     1      18.709  33.545  11.170  1.00  0.00     0.178 C 
ATOM      4  C   UNL     1      19.792  32.888  12.047  1.00  0.00     0.179 C 
ATOM      5  C   UNL     1      19.285  33.105  13.450  1.00  0.00     0.196 C 
ENDROOT
BRANCH   1   6
ATOM      6  N   UNL     1      17.342  34.411  14.314  1.00  0.00    -0.270 N 
ATOM      7  C   UNL     1      15.311  34.590  16.179  1.00  0.00     0.130 A 
ATOM      8  N   UNL     1      16.600  34.823  16.529  1.00  0.00    -0.176 NA
ATOM      9  C   UNL     1      15.006  34.272  14.858  1.00  0.00     0.065 A 
ATOM     10  C   UNL     1      17.609  34.744  15.622  1.00  0.00     0.351 A 
ATOM     11  C   UNL     1      16.045  34.193  13.933  1.00  0.00     0.097 A 
ATOM     12  O   UNL     1      18.785  34.992  16.002  1.00  0.00    -0.246 OA
BRANCH   7  13
ATOM     13  N   UNL     1      14.279  34.682  17.161  1.00  0.00    -0.383 N 
ATOM     14  H   UNL     1      14.059  35.599  17.609  1.00  0.00     0.158 HD
ATOM     15  H   UNL     1      13.732  33.838  17.446  1.00  0.00     0.158 HD
ENDBRANCH   7  13
ENDBRANCH   1   6
BRANCH   5  16
ATOM     16  O   UNL     1      18.543  31.984  13.858  1.00  0.00    -0.386 OA
ATOM     17  H   UNL     1      18.030  32.257  14.663  1.00  0.00     0.211 HD
ENDBRANCH   5  16
BRANCH   3  18
ATOM     18  C   UNL     1      17.878  32.503  10.413  1.00  0.00     0.191 C 
BRANCH  18  19
ATOM     19  O   UNL     1      18.611  31.318  10.268  1.00  0.00    -0.394 OA
ATOM     20  H   UNL     1      18.153  30.796   9.560  1.00  0.00     0.210 HD
ENDBRANCH  18  19
ENDBRANCH   3  18
BRANCH   4  21
ATOM     21  O   UNL     1      21.020  33.551  11.883  1.00  0.00    -0.387 OA
ATOM     22  H   UNL     1      21.592  33.277  12.646  1.00  0.00     0.211 HD
ENDBRANCH   4  21
TORSDOF 6
ENDMDL
MODEL 3
REMARK VINA RESULT:    -5.681      3.224      5.246
REMARK INTER + INTRA:          -7.385
REMARK INTER:                  -7.408
REMARK INTRA:                   0.024
REMARK UNBOUND:                -0.375
REMARK SMILES Nc1ccn([C@@H]2O[C@H](CO)[C@@H](O)[C@@H]2O)c(=O)n1
REMARK SMILES IDX 6 1 7 2 8 3 11 4 13 5 5 6 2 7 17 8 3 9 15 10 4 11 16 12 1 13
REMARK SMILES IDX 14 16 9 18 10 19 12 21
REMARK H PARENT 1 14 1 15 14 17 10 20 12 22
REMARK Flexibility Score: inf
ROOT
ATOM      1  C   UNL     1      17.639  33.836  12.492  1.00  0.00     0.255 C 
ATOM      2  O   UNL     1      17.244  34.786  11.529  1.00  0.00    -0.347 OA
ATOM      3  C   UNL     1      17.450  34.208  10.256  1.00  0.00     0.178 C 
ATOM      4  C   UNL     1      17.848  32.730  10.422  1.00  0.00     0.179 C 
ATOM      5  C   UNL     1      17.549  32.447  11.871  1.00  0.00     0.196 C 
ENDROOT
BRANCH   1   6
ATOM      6  N   UNL     1      16.838  33.952  13.730  1.00  0.00    -0.270 N 
ATOM      7  C   UNL     1      15.284  34.234  15.998  1.00  0.00     0.130 A 
ATOM      8  N   UNL     1      16.620  34.018  16.091  1.00  0.00    -0.176 NA
ATOM      9  C   UNL     1      14.691  34.330  14.741  1.00  0.00     0.065 A 
ATOM     10  C   UNL     1      17.398  33.883  14.985  1.00  0.00     0.351 A 
ATOM     11  C   UNL     1      15.495  34.191  13.612  1.00  0.00     0.097 A 
ATOM     12  O   UNL     1      18.636  33.705  15.134  1.00  0.00    -0.246 OA
BRANCH   7  13
ATOM     13  N   UNL     1      14.501  34.369  17.183  1.00  0.00    -0.383 N 
ATOM     14  H   UNL     1      13.694  35.031  17.208  1.00  0.00     0.158 HD
ATOM     15  H   UNL     1      14.721  33.812  18.040  1.00  0.00     0.158 HD
ENDBRANCH   7  13
ENDBRANCH   1   6
BRANCH   5  16
ATOM     16  O   UNL     1      16.253  31.913  11.986  1.00  0.00    -0.386 OA
ATOM     17  H   UNL     1      16.127  31.298  11.218  1.00  0.00     0.211 HD
ENDBRANCH   5  16
BRANCH   3  18
ATOM     18  C   UNL     1      16.172  34.366   9.425  1.00  0.00     0.191 C 
BRANCH  18  19
ATOM     19  O   UNL     1      15.697  35.680   9.519  1.00  0.00    -0.394 OA
ATOM     20  H   UNL     1      14.736  35.644   9.278  1.00  0.00     0.210 HD
ENDBRANCH  18  19
ENDBRANCH   3  18
BRANCH   4  21
ATOM     21  O   UNL     1      19.224  32.567  10.186  1.00  0.00    -0.387 OA
ATOM     22  H   UNL     1      19.319  31.754   9.623  1.00  0.00     0.211 HD
ENDBRANCH   4  21
TORSDOF 6
ENDMDL
MODEL 4
REMARK VINA RESULT:    -5.662     13.601     15.398
REMARK INTER + INTRA:          -7.361
REMARK INTER:                  -7.221
REMARK INTRA:                  -0.140
REMARK UNBOUND:                -0.375
REMARK SMILES Nc1ccn([C@@H]2O[C@H](CO)[C@@H](O)[C@@H]2O)c(=O)n1
REMARK SMILES IDX 6 1 7 2 8 3 11 4 13 5 5 6 2 7 17 8 3 9 15 10 4 11 16 12 1 13
REMARK SMILES IDX 14 16 9 18 10 19 12 21
REMARK H PARENT 1 14 1 15 14 17 10 20 12 22
REMARK Flexibility Score: inf
ROOT
ATOM      1  C   UNL     1       4.476  26.269   9.672  1.00  0.00     0.255 C 
ATOM      2  O   UNL     1       4.604  25.333  10.719  1.00  0.00    -0.347 OA
ATOM      3  C   UNL     1       4.023  24.123  10.278  1.00  0.00     0.178 C 
ATOM      4  C   UNL     1       3.647  24.247   8.790  1.00  0.00     0.179 C 
ATOM      5  C   UNL     1       4.343  25.511   8.356  1.00  0.00     0.196 C 
ENDROOT
BRANCH   1   6
ATOM      6  N   UNL     1       5.603  27.226   9.659  1.00  0.00    -0.270 N 
ATOM      7  C   UNL     1       7.665  29.064   9.565  1.00  0.00     0.130 A 
ATOM      8  N   UNL     1       7.911  27.752   9.810  1.00  0.00    -0.176 NA
ATOM      9  C   UNL     1       6.356  29.485   9.343  1.00  0.00     0.065 A 
ATOM     10  C   UNL     1       6.908  26.836   9.854  1.00  0.00     0.351 A 
ATOM     11  C   UNL     1       5.334  28.541   9.389  1.00  0.00     0.097 A 
ATOM     12  O   UNL     1       7.201  25.629  10.064  1.00  0.00    -0.246 OA
BRANCH   7  13
ATOM     13  N   UNL     1       8.745  29.996   9.529  1.00  0.00    -0.383 N 
ATOM     14  H   UNL     1       9.429  30.039  10.317  1.00  0.00     0.158 HD
ATOM     15  H   UNL     1       8.868  30.645   8.720  1.00  0.00     0.158 HD
ENDBRANCH   7  13
ENDBRANCH   1   6
BRANCH   5  16
ATOM     16  O   UNL     1       5.601  25.191   7.815  1.00  0.00    -0.386 OA
ATOM     17  H   UNL     1       6.241  25.867   8.160  1.00  0.00     0.211 HD
ENDBRANCH   5  16
BRANCH   3  18
ATOM     18  C   UNL     1       5.011  22.978  10.524  1.00  0.00     0.191 C 
BRANCH  18  19
ATOM     19  O   UNL     1       6.001  22.977   9.533  1.00  0.00    -0.394 OA
ATOM     20  H   UNL     1       6.025  23.898   9.166  1.00  0.00     0.210 HD
ENDBRANCH  18  19
ENDBRANCH   3  18
BRANCH   4  21
ATOM     21  O   UNL     1       2.258  24.404   8.650  1.00  0.00    -0.387 OA
ATOM     22  H   UNL     1       1.876  24.359   9.566  1.00  0.00     0.211 HD
ENDBRANCH   4  21
TORSDOF 6
ENDMDL
MODEL 5
REMARK VINA RESULT:    -5.629      1.947      3.212
REMARK INTER + INTRA:          -7.320
REMARK INTER:                  -6.876
REMARK INTRA:                  -0.444
REMARK UNBOUND:                -0.375
REMARK SMILES Nc1ccn([C@@H]2O[C@H](CO)[C@@H](O)[C@@H]2O)c(=O)n1
REMARK SMILES IDX 6 1 7 2 8 3 11 4 13 5 5 6 2 7 17 8 3 9 15 10 4 11 16 12 1 13
REMARK SMILES IDX 14 16 9 18 10 19 12 21
REMARK H PARENT 1 14 1 15 14 17 10 20 12 22
REMARK Flexibility Score: inf
ROOT
ATOM      1  C   UNL     1      20.014  33.634  13.605  1.00  0.00     0.255 C 
ATOM      2  O   UNL     1      21.187  34.051  12.946  1.00  0.00    -0.347 OA
ATOM      3  C   UNL     1      22.281  33.710  13.773  1.00  0.00     0.178 C 
ATOM      4  C   UNL     1      21.781  32.871  14.963  1.00  0.00     0.179 C 
ATOM      5  C   UNL     1      20.372  32.511  14.571  1.00  0.00     0.196 C 
ENDROOT
BRANCH   1   6
ATOM      6  N   UNL     1      18.964  33.234  12.642  1.00  0.00    -0.270 N 
ATOM      7  C   UNL     1      17.051  32.533  10.775  1.00  0.00     0.130 A 
ATOM      8  N   UNL     1      16.704  32.818  12.055  1.00  0.00    -0.176 NA
ATOM      9  C   UNL     1      18.389  32.610  10.395  1.00  0.00     0.065 A 
ATOM     10  C   UNL     1      17.632  33.169  12.983  1.00  0.00     0.351 A 
ATOM     11  C   UNL     1      19.335  32.972  11.351  1.00  0.00     0.097 A 
ATOM     12  O   UNL     1      17.247  33.444  14.151  1.00  0.00    -0.246 OA
BRANCH   7  13
ATOM     13  N   UNL     1      16.047  32.166   9.830  1.00  0.00    -0.383 N 
ATOM     14  H   UNL     1      15.821  31.160   9.666  1.00  0.00     0.158 HD
ATOM     15  H   UNL     1      15.525  32.893   9.291  1.00  0.00     0.158 HD
ENDBRANCH   7  13
ENDBRANCH   1   6
BRANCH   5  16
ATOM     16  O   UNL     1      20.369  31.259  13.932  1.00  0.00    -0.386 OA
ATOM     17  H   UNL     1      19.475  30.858  14.091  1.00  0.00     0.211 HD
ENDBRANCH   5  16
BRANCH   3  18
ATOM     18  C   UNL     1      23.321  32.956  12.938  1.00  0.00     0.191 C 
BRANCH  18  19
ATOM     19  O   UNL     1      22.680  32.084  12.048  1.00  0.00    -0.394 OA
ATOM     20  H   UNL     1      21.714  32.299  12.099  1.00  0.00     0.210 HD
ENDBRANCH  18  19
ENDBRANCH   3  18
BRANCH   4  21
ATOM     21  O   UNL     1      21.760  33.650  16.133  1.00  0.00    -0.387 OA
ATOM     22  H   UNL     1      21.927  34.587  15.850  1.00  0.00     0.211 HD
ENDBRANCH   4  21
TORSDOF 6
ENDMDL
MODEL 6
REMARK VINA RESULT:    -5.625      2.447      4.070
REMARK INTER + INTRA:          -7.316
REMARK INTER:                  -6.875
REMARK INTRA:                  -0.441
REMARK UNBOUND:                -0.375
REMARK SMILES Nc1ccn([C@@H]2O[C@H](CO)[C@@H](O)[C@@H]2O)c(=O)n1
REMARK SMILES IDX 6 1 7 2 8 3 11 4 13 5 5 6 2 7 17 8 3 9 15 10 4 11 16 12 1 13
REMARK SMILES IDX 14 16 9 18 10 19 12 21
REMARK H PARENT 1 14 1 15 14 17 10 20 12 22
REMARK Flexibility Score: inf
ROOT
ATOM      1  C   UNL     1      21.065  34.181  13.462  1.00  0.00     0.255 C 
ATOM      2  O   UNL     1      22.002  34.196  12.410  1.00  0.00    -0.347 OA
ATOM      3  C   UNL     1      23.274  33.946  12.973  1.00  0.00     0.178 C 
ATOM      4  C   UNL     1      23.113  33.584  14.461  1.00  0.00     0.179 C 
ATOM      5  C   UNL     1      21.632  33.351  14.607  1.00  0.00     0.196 C 
ENDROOT
BRANCH   1   6
ATOM      6  N   UNL     1      19.747  33.686  13.007  1.00  0.00    -0.270 N 
ATOM      7  C   UNL     1      17.315  32.769  12.068  1.00  0.00     0.130 A 
ATOM      8  N   UNL     1      17.385  33.543  13.179  1.00  0.00    -0.176 NA
ATOM      9  C   UNL     1      18.485  32.445  11.383  1.00  0.00     0.065 A 
ATOM     10  C   UNL     1      18.573  34.006  13.650  1.00  0.00     0.351 A 
ATOM     11  C   UNL     1      19.698  32.923  11.871  1.00  0.00     0.097 A 
ATOM     12  O   UNL     1      18.573  34.740  14.674  1.00  0.00    -0.246 OA
BRANCH   7  13
ATOM     13  N   UNL     1      16.049  32.301  11.605  1.00  0.00    -0.383 N 
ATOM     14  H   UNL     1      15.715  31.346  11.864  1.00  0.00     0.158 HD
ATOM     15  H   UNL     1      15.440  32.901  11.005  1.00  0.00     0.158 HD
ENDBRANCH   7  13
ENDBRANCH   1   6
BRANCH   5  16
ATOM     16  O   UNL     1      21.355  31.983  14.441  1.00  0.00    -0.386 OA
ATOM     17  H   UNL     1      21.565  31.540  15.304  1.00  0.00     0.211 HD
ENDBRANCH   5  16
BRANCH   3  18
ATOM     18  C   UNL     1      23.957  32.825  12.182  1.00  0.00     0.191 C 
BRANCH  18  19
ATOM     19  O   UNL     1      23.034  31.812  11.890  1.00  0.00    -0.394 OA
ATOM     20  H   UNL     1      23.460  30.962  12.170  1.00  0.00     0.210 HD
ENDBRANCH  18  19
ENDBRANCH   3  18
BRANCH   4  21
ATOM     21  O   UNL     1      23.501  34.666  15.269  1.00  0.00    -0.387 OA
ATOM     22  H   UNL     1      22.811  34.749  15.978  1.00  0.00     0.211 HD
ENDBRANCH   4  21
TORSDOF 6
ENDMDL
MODEL 7
REMARK VINA RESULT:    -5.538      2.258      3.487
REMARK INTER + INTRA:          -7.208
REMARK INTER:                  -7.027
REMARK INTRA:                  -0.181
REMARK UNBOUND:                -0.375
REMARK SMILES Nc1ccn([C@@H]2O[C@H](CO)[C@@H](O)[C@@H]2O)c(=O)n1
REMARK SMILES IDX 6 1 7 2 8 3 11 4 13 5 5 6 2 7 17 8 3 9 15 10 4 11 16 12 1 13
REMARK SMILES IDX 14 16 9 18 10 19 12 21
REMARK H PARENT 1 14 1 15 14 17 10 20 12 22
REMARK Flexibility Score: inf
ROOT
ATOM      1  C   UNL     1      20.605  33.970  13.868  1.00  0.00     0.255 C 
ATOM      2  O   UNL     1      21.571  34.336  12.909  1.00  0.00    -0.347 OA
ATOM      3  C   UNL     1      22.840  34.031  13.449  1.00  0.00     0.178 C 
ATOM      4  C   UNL     1      22.663  33.267  14.775  1.00  0.00     0.179 C 
ATOM      5  C   UNL     1      21.202  32.901  14.776  1.00  0.00     0.196 C 
ENDROOT
BRANCH   1   6
ATOM      6  N   UNL     1      19.347  33.528  13.229  1.00  0.00    -0.270 N 
ATOM      7  C   UNL     1      16.961  32.680  12.123  1.00  0.00     0.130 A 
ATOM      8  N   UNL     1      18.139  32.464  11.487  1.00  0.00    -0.176 NA
ATOM      9  C   UNL     1      16.956  33.324  13.358  1.00  0.00     0.065 A 
ATOM     10  C   UNL     1      19.321  32.870  12.021  1.00  0.00     0.351 A 
ATOM     11  C   UNL     1      18.172  33.737  13.900  1.00  0.00     0.097 A 
ATOM     12  O   UNL     1      20.385  32.622  11.394  1.00  0.00    -0.246 OA
BRANCH   7  13
ATOM     13  N   UNL     1      15.740  32.240  11.528  1.00  0.00    -0.383 N 
ATOM     14  H   UNL     1      15.727  31.904  10.540  1.00  0.00     0.158 HD
ATOM     15  H   UNL     1      14.846  32.248  12.069  1.00  0.00     0.158 HD
ENDBRANCH   7  13
ENDBRANCH   1   6
BRANCH   5  16
ATOM     16  O   UNL     1      21.041  31.614  14.233  1.00  0.00    -0.386 OA
ATOM     17  H   UNL     1      21.821  31.453  13.642  1.00  0.00     0.211 HD
ENDBRANCH   5  16
BRANCH   3  18
ATOM     18  C   UNL     1      23.636  33.218  12.423  1.00  0.00     0.191 C 
BRANCH  18  19
ATOM     19  O   UNL     1      22.933  32.055  12.083  1.00  0.00    -0.394 OA
ATOM     20  H   UNL     1      23.369  31.315  12.579  1.00  0.00     0.210 HD
ENDBRANCH  18  19
ENDBRANCH   3  18
BRANCH   4  21
ATOM     21  O   UNL     1      22.937  34.112  15.864  1.00  0.00    -0.387 OA
ATOM     22  H   UNL     1      23.638  34.746  15.559  1.00  0.00     0.211 HD
ENDBRANCH   4  21
TORSDOF 6
ENDMDL
MODEL 8
REMARK VINA RESULT:    -5.538      2.261      5.421
REMARK INTER + INTRA:          -7.208
REMARK INTER:                  -7.123
REMARK INTRA:                  -0.085
REMARK UNBOUND:                -0.375
REMARK SMILES Nc1ccn([C@@H]2O[C@H](CO)[C@@H](O)[C@@H]2O)c(=O)n1
REMARK SMILES IDX 6 1 7 2 8 3 11 4 13 5 5 6 2 7 17 8 3 9 15 10 4 11 16 12 1 13
REMARK SMILES IDX 14 16 9 18 10 19 12 21
REMARK H PARENT 1 14 1 15 14 17 10 20 12 22
REMARK Flexibility Score: inf
ROOT
ATOM      1  C   UNL     1      17.515  33.459   9.713  1.00  0.00     0.255 C 
ATOM      2  O   UNL     1      16.231  33.256   9.168  1.00  0.00    -0.347 OA
ATOM      3  C   UNL     1      16.382  32.442   8.024  1.00  0.00     0.178 C 
ATOM      4  C   UNL     1      17.840  31.957   7.927  1.00  0.00     0.179 C 
ATOM      5  C   UNL     1      18.417  32.312   9.273  1.00  0.00     0.196 C 
ENDROOT
BRANCH   1   6
ATOM      6  N   UNL     1      17.463  33.601  11.185  1.00  0.00    -0.270 N 
ATOM      7  C   UNL     1      17.286  33.918  13.924  1.00  0.00     0.130 A 
ATOM      8  N   UNL     1      18.491  33.891  13.303  1.00  0.00    -0.176 NA
ATOM      9  C   UNL     1      16.122  33.800  13.168  1.00  0.00     0.065 A 
ATOM     10  C   UNL     1      18.594  33.742  11.956  1.00  0.00     0.351 A 
ATOM     11  C   UNL     1      16.235  33.647  11.788  1.00  0.00     0.097 A 
ATOM     12  O   UNL     1      19.740  33.746  11.432  1.00  0.00    -0.246 OA
BRANCH   7  13
ATOM     13  N   UNL     1      17.219  34.075  15.341  1.00  0.00    -0.383 N 
ATOM     14  H   UNL     1      18.002  34.535  15.857  1.00  0.00     0.158 HD
ATOM     15  H   UNL     1      16.392  33.735  15.881  1.00  0.00     0.158 HD
ENDBRANCH   7  13
ENDBRANCH   1   6
BRANCH   5  16
ATOM     16  O   UNL     1      18.307  31.208  10.136  1.00  0.00    -0.386 OA
ATOM     17  H   UNL     1      17.745  31.497  10.901  1.00  0.00     0.211 HD
ENDBRANCH   5  16
BRANCH   3  18
ATOM     18  C   UNL     1      15.396  31.272   8.111  1.00  0.00     0.191 C 
BRANCH  18  19
ATOM     19  O   UNL     1      16.089  30.055   8.068  1.00  0.00    -0.394 OA
ATOM     20  H   UNL     1      15.977  29.707   7.147  1.00  0.00     0.210 HD
ENDBRANCH  18  19
ENDBRANCH   3  18
BRANCH   4  21
ATOM     21  O   UNL     1      18.523  32.663   6.922  1.00  0.00    -0.387 OA
ATOM     22  H   UNL     1      19.248  33.167   7.375  1.00  0.00     0.211 HD
ENDBRANCH   4  21
TORSDOF 6
ENDMDL
MODEL 9
REMARK VINA RESULT:    -5.535      7.051      8.721
REMARK INTER + INTRA:          -7.205
REMARK INTER:                  -6.906
REMARK INTRA:                  -0.298
REMARK UNBOUND:                -0.375
REMARK SMILES Nc1ccn([C@@H]2O[C@H](CO)[C@@H](O)[C@@H]2O)c(=O)n1
REMARK SMILES IDX 6 1 7 2 8 3 11 4 13 5 5 6 2 7 17 8 3 9 15 10 4 11 16 12 1 13
REMARK SMILES IDX 14 16 9 18 10 19 12 21
REMARK H PARENT 1 14 1 15 14 17 10 20 12 22
REMARK Flexibility Score: inf
ROOT
ATOM      1  C   UNL     1      25.008  34.574  13.731  1.00  0.00     0.255 C 
ATOM      2  O   UNL     1      23.981  34.909  12.827  1.00  0.00    -0.347 OA
ATOM      3  C   UNL     1      23.713  36.287  12.982  1.00  0.00     0.178 C 
ATOM      4  C   UNL     1      24.754  36.908  13.933  1.00  0.00     0.179 C 
ATOM      5  C   UNL     1      25.804  35.835  14.052  1.00  0.00     0.196 C 
ENDROOT
BRANCH   1   6
ATOM      6  N   UNL     1      25.863  33.488  13.204  1.00  0.00    -0.270 N 
ATOM      7  C   UNL     1      27.388  31.431  12.164  1.00  0.00     0.130 A 
ATOM      8  N   UNL     1      27.528  31.818  13.456  1.00  0.00    -0.176 NA
ATOM      9  C   UNL     1      26.451  32.071  11.355  1.00  0.00     0.065 A 
ATOM     10  C   UNL     1      26.782  32.824  13.984  1.00  0.00     0.351 A 
ATOM     11  C   UNL     1      25.689  33.101  11.902  1.00  0.00     0.097 A 
ATOM     12  O   UNL     1      26.941  33.123  15.197  1.00  0.00    -0.246 OA
BRANCH   7  13
ATOM     13  N   UNL     1      28.191  30.371  11.646  1.00  0.00    -0.383 N 
ATOM     14  H   UNL     1      27.827  29.760  10.882  1.00  0.00     0.158 HD
ATOM     15  H   UNL     1      29.149  30.190  12.022  1.00  0.00     0.158 HD
ENDBRANCH   7  13
ENDBRANCH   1   6
BRANCH   5  16
ATOM     16  O   UNL     1      26.816  36.062  13.103  1.00  0.00    -0.386 OA
ATOM     17  H   UNL     1      26.455  35.774  12.224  1.00  0.00     0.211 HD
ENDBRANCH   5  16
BRANCH   3  18
ATOM     18  C   UNL     1      23.728  36.956  11.603  1.00  0.00     0.191 C 
BRANCH  18  19
ATOM     19  O   UNL     1      25.043  37.045  11.127  1.00  0.00    -0.394 OA
ATOM     20  H   UNL     1      25.117  36.376  10.398  1.00  0.00     0.210 HD
ENDBRANCH  18  19
ENDBRANCH   3  18
BRANCH   4  21
ATOM     21  O   UNL     1      24.180  37.147  15.193  1.00  0.00    -0.387 OA
ATOM     22  H   UNL     1      24.765  37.807  15.648  1.00  0.00     0.211 HD
ENDBRANCH   4  21
TORSDOF 6
ENDMDL
MODEL 10
REMARK VINA RESULT:    -5.483      4.683      6.229
REMARK INTER + INTRA:          -7.140
REMARK INTER:                  -6.693
REMARK INTRA:                  -0.447
REMARK UNBOUND:                -0.375
REMARK SMILES Nc1ccn([C@@H]2O[C@H](CO)[C@@H](O)[C@@H]2O)c(=O)n1
REMARK SMILES IDX 6 1 7 2 8 3 11 4 13 5 5 6 2 7 17 8 3 9 15 10 4 11 16 12 1 13
REMARK SMILES IDX 14 16 9 18 10 19 12 21
REMARK H PARENT 1 14 1 15 14 17 10 20 12 22
REMARK Flexibility Score: inf
ROOT
ATOM      1  C   UNL     1      17.097  36.028  17.401  1.00  0.00     0.255 C 
ATOM      2  O   UNL     1      18.207  36.452  16.643  1.00  0.00    -0.347 OA
ATOM      3  C   UNL     1      19.347  36.358  17.473  1.00  0.00     0.178 C 
ATOM      4  C   UNL     1      18.962  35.671  18.797  1.00  0.00     0.179 C 
ATOM      5  C   UNL     1      17.591  35.113  18.517  1.00  0.00     0.196 C 
ENDROOT
BRANCH   1   6
ATOM      6  N   UNL     1      16.076  35.377  16.551  1.00  0.00    -0.270 N 
ATOM      7  C   UNL     1      14.212  34.200  14.886  1.00  0.00     0.130 A 
ATOM      8  N   UNL     1      13.858  34.662  16.111  1.00  0.00    -0.176 NA
ATOM      9  C   UNL     1      15.530  34.335  14.457  1.00  0.00     0.065 A 
ATOM     10  C   UNL     1      14.762  35.248  16.938  1.00  0.00     0.351 A 
ATOM     11  C   UNL     1      16.452  34.937  15.310  1.00  0.00     0.097 A 
ATOM     12  O   UNL     1      14.370  35.679  18.056  1.00  0.00    -0.246 OA
BRANCH   7  13
ATOM     13  N   UNL     1      13.233  33.588  14.046  1.00  0.00    -0.383 N 
ATOM     14  H   UNL     1      13.339  32.591  13.754  1.00  0.00     0.158 HD
ATOM     15  H   UNL     1      12.401  34.125  13.711  1.00  0.00     0.158 HD
ENDBRANCH   7  13
ENDBRANCH   1   6
BRANCH   5  16
ATOM     16  O   UNL     1      17.707  33.782  18.080  1.00  0.00    -0.386 OA
ATOM     17  H   UNL     1      18.667  33.542  18.143  1.00  0.00     0.211 HD
ENDBRANCH   5  16
BRANCH   3  18
ATOM     18  C   UNL     1      20.443  35.589  16.728  1.00  0.00     0.191 C 
BRANCH  18  19
ATOM     19  O   UNL     1      19.901  34.452  16.115  1.00  0.00    -0.394 OA
ATOM     20  H   UNL     1      19.236  34.086  16.753  1.00  0.00     0.210 HD
ENDBRANCH  18  19
ENDBRANCH   3  18
BRANCH   4  21
ATOM     21  O   UNL     1      18.882  36.618  19.831  1.00  0.00    -0.387 OA
ATOM     22  H   UNL     1      18.078  36.386  20.365  1.00  0.00     0.211 HD
ENDBRANCH   4  21
TORSDOF 6
ENDMDL
MODEL 11
REMARK VINA RESULT:    -5.467      1.841      3.085
REMARK INTER + INTRA:          -7.120
REMARK INTER:                  -7.064
REMARK INTRA:                  -0.056
REMARK UNBOUND:                -0.375
REMARK SMILES Nc1ccn([C@@H]2O[C@H](CO)[C@@H](O)[C@@H]2O)c(=O)n1
REMARK SMILES IDX 6 1 7 2 8 3 11 4 13 5 5 6 2 7 17 8 3 9 15 10 4 11 16 12 1 13
REMARK SMILES IDX 14 16 9 18 10 19 12 21
REMARK H PARENT 1 14 1 15 14 17 10 20 12 22
REMARK Flexibility Score: inf
ROOT
ATOM      1  C   UNL     1      17.190  33.905  11.202  1.00  0.00     0.255 C 
ATOM      2  O   UNL     1      18.455  33.779  11.810  1.00  0.00    -0.347 OA
ATOM      3  C   UNL     1      18.255  33.777  13.208  1.00  0.00     0.178 C 
ATOM      4  C   UNL     1      16.746  33.732  13.510  1.00  0.00     0.179 C 
ATOM      5  C   UNL     1      16.131  33.398  12.176  1.00  0.00     0.196 C 
ENDROOT
BRANCH   1   6
ATOM      6  N   UNL     1      17.140  33.202   9.902  1.00  0.00    -0.270 N 
ATOM      7  C   UNL     1      16.957  31.920   7.460  1.00  0.00     0.130 A 
ATOM      8  N   UNL     1      17.672  31.380   8.479  1.00  0.00    -0.176 NA
ATOM      9  C   UNL     1      16.294  33.130   7.654  1.00  0.00     0.065 A 
ATOM     10  C   UNL     1      17.766  31.996   9.687  1.00  0.00     0.351 A 
ATOM     11  C   UNL     1      16.395  33.755   8.895  1.00  0.00     0.097 A 
ATOM     12  O   UNL     1      18.427  31.435  10.602  1.00  0.00    -0.246 OA
BRANCH   7  13
ATOM     13  N   UNL     1      16.882  31.244   6.206  1.00  0.00    -0.383 N 
ATOM     14  H   UNL     1      17.607  30.540   5.944  1.00  0.00     0.158 HD
ATOM     15  H   UNL     1      16.107  31.441   5.534  1.00  0.00     0.158 HD
ENDBRANCH   7  13
ENDBRANCH   1   6
BRANCH   5  16
ATOM     16  O   UNL     1      15.959  32.007  12.073  1.00  0.00    -0.386 OA
ATOM     17  H   UNL     1      16.790  31.589  12.418  1.00  0.00     0.211 HD
ENDBRANCH   5  16
BRANCH   3  18
ATOM     18  C   UNL     1      18.995  32.580  13.815  1.00  0.00     0.191 C 
BRANCH  18  19
ATOM     19  O   UNL     1      19.912  32.063  12.890  1.00  0.00    -0.394 OA
ATOM     20  H   UNL     1      20.150  32.815  12.289  1.00  0.00     0.210 HD
ENDBRANCH  18  19
ENDBRANCH   3  18
BRANCH   4  21
ATOM     21  O   UNL     1      16.296  34.994  13.933  1.00  0.00    -0.387 OA
ATOM     22  H   UNL     1      17.016  35.639  13.708  1.00  0.00     0.211 HD
ENDBRANCH   4  21
TORSDOF 6
ENDMDL
MODEL 12
REMARK VINA RESULT:    -5.444      3.017      5.706
REMARK INTER + INTRA:          -7.091
REMARK INTER:                  -6.673
REMARK INTRA:                  -0.418
REMARK UNBOUND:                -0.375
REMARK SMILES Nc1ccn([C@@H]2O[C@H](CO)[C@@H](O)[C@@H]2O)c(=O)n1
REMARK SMILES IDX 6 1 7 2 8 3 11 4 13 5 5 6 2 7 17 8 3 9 15 10 4 11 16 12 1 13
REMARK SMILES IDX 14 16 9 18 10 19 12 21
REMARK H PARENT 1 14 1 15 14 17 10 20 12 22
REMARK Flexibility Score: inf
ROOT
ATOM      1  C   UNL     1      16.744  31.750   9.606  1.00  0.00     0.255 C 
ATOM      2  O   UNL     1      17.663  30.904   8.954  1.00  0.00    -0.347 OA
ATOM      3  C   UNL     1      17.263  30.807   7.602  1.00  0.00     0.178 C 
ATOM      4  C   UNL     1      16.107  31.789   7.338  1.00  0.00     0.179 C 
ATOM      5  C   UNL     1      16.099  32.660   8.567  1.00  0.00     0.196 C 
ENDROOT
BRANCH   1   6
ATOM      6  N   UNL     1      17.389  32.512  10.698  1.00  0.00    -0.270 N 
ATOM      7  C   UNL     1      18.671  33.882  12.726  1.00  0.00     0.130 A 
ATOM      8  N   UNL     1      17.340  33.630  12.790  1.00  0.00    -0.176 NA
ATOM      9  C   UNL     1      19.403  33.430  11.630  1.00  0.00     0.065 A 
ATOM     10  C   UNL     1      16.697  32.952  11.803  1.00  0.00     0.351 A 
ATOM     11  C   UNL     1      18.737  32.736  10.623  1.00  0.00     0.097 A 
ATOM     12  O   UNL     1      15.463  32.729  11.928  1.00  0.00    -0.246 OA
BRANCH   7  13
ATOM     13  N   UNL     1      19.311  34.598  13.782  1.00  0.00    -0.383 N 
ATOM     14  H   UNL     1      20.207  34.247  14.188  1.00  0.00     0.158 HD
ATOM     15  H   UNL     1      18.896  35.478  14.163  1.00  0.00     0.158 HD
ENDBRANCH   7  13
ENDBRANCH   1   6
BRANCH   5  16
ATOM     16  O   UNL     1      16.875  33.808   8.332  1.00  0.00    -0.386 OA
ATOM     17  H   UNL     1      16.334  34.407   7.755  1.00  0.00     0.211 HD
ENDBRANCH   5  16
BRANCH   3  18
ATOM     18  C   UNL     1      18.471  31.092   6.703  1.00  0.00     0.191 C 
BRANCH  18  19
ATOM     19  O   UNL     1      19.211  32.164   7.219  1.00  0.00    -0.394 OA
ATOM     20  H   UNL     1      20.124  31.814   7.385  1.00  0.00     0.210 HD
ENDBRANCH  18  19
ENDBRANCH   3  18
BRANCH   4  21
ATOM     21  O   UNL     1      14.889  31.094   7.246  1.00  0.00    -0.387 OA
ATOM     22  H   UNL     1      14.424  31.445   6.442  1.00  0.00     0.211 HD
ENDBRANCH   4  21
TORSDOF 6
ENDMDL
MODEL 13
REMARK VINA RESULT:    -5.418      4.139      5.994
REMARK INTER + INTRA:          -7.060
REMARK INTER:                  -7.223
REMARK INTRA:                   0.163
REMARK UNBOUND:                -0.375
REMARK SMILES Nc1ccn([C@@H]2O[C@H](CO)[C@@H](O)[C@@H]2O)c(=O)n1
REMARK SMILES IDX 6 1 7 2 8 3 11 4 13 5 5 6 2 7 17 8 3 9 15 10 4 11 16 12 1 13
REMARK SMILES IDX 14 16 9 18 10 19 12 21
REMARK H PARENT 1 14 1 15 14 17 10 20 12 22
REMARK Flexibility Score: inf
ROOT
ATOM      1  C   UNL     1      22.108  32.815  13.019  1.00  0.00     0.255 C 
ATOM      2  O   UNL     1      21.470  32.392  11.836  1.00  0.00    -0.347 OA
ATOM      3  C   UNL     1      20.211  31.865  12.200  1.00  0.00     0.178 C 
ATOM      4  C   UNL     1      19.961  32.120  13.698  1.00  0.00     0.179 C 
ATOM      5  C   UNL     1      21.043  33.100  14.071  1.00  0.00     0.196 C 
ENDROOT
BRANCH   1   6
ATOM      6  N   UNL     1      22.985  33.981  12.776  1.00  0.00    -0.270 N 
ATOM      7  C   UNL     1      24.583  36.170  12.236  1.00  0.00     0.130 A 
ATOM      8  N   UNL     1      25.058  35.121  12.953  1.00  0.00    -0.176 NA
ATOM      9  C   UNL     1      23.277  36.135  11.753  1.00  0.00     0.065 A 
ATOM     10  C   UNL     1      24.286  34.035  13.222  1.00  0.00     0.351 A 
ATOM     11  C   UNL     1      22.492  35.018  12.032  1.00  0.00     0.097 A 
ATOM     12  O   UNL     1      24.789  33.081  13.874  1.00  0.00    -0.246 OA
BRANCH   7  13
ATOM     13  N   UNL     1      25.424  37.293  11.976  1.00  0.00    -0.383 N 
ATOM     14  H   UNL     1      25.012  38.193  11.645  1.00  0.00     0.158 HD
ATOM     15  H   UNL     1      26.459  37.232  12.111  1.00  0.00     0.158 HD
ENDBRANCH   7  13
ENDBRANCH   1   6
BRANCH   5  16
ATOM     16  O   UNL     1      20.546  34.410  13.961  1.00  0.00    -0.386 OA
ATOM     17  H   UNL     1      19.771  34.476  14.577  1.00  0.00     0.211 HD
ENDBRANCH   5  16
BRANCH   3  18
ATOM     18  C   UNL     1      19.130  32.507  11.323  1.00  0.00     0.191 C 
BRANCH  18  19
ATOM     19  O   UNL     1      18.664  31.581  10.380  1.00  0.00    -0.394 OA
ATOM     20  H   UNL     1      18.018  31.002  10.860  1.00  0.00     0.210 HD
ENDBRANCH  18  19
ENDBRANCH   3  18
BRANCH   4  21
ATOM     21  O   UNL     1      20.131  30.931  14.428  1.00  0.00    -0.387 OA
ATOM     22  H   UNL     1      19.844  31.129  15.358  1.00  0.00     0.211 HD
ENDBRANCH   4  21
TORSDOF 6
ENDMDL
MODEL 14
REMARK VINA RESULT:    -5.371      1.815      2.977
REMARK INTER + INTRA:          -7.002
REMARK INTER:                  -6.742
REMARK INTRA:                  -0.260
REMARK UNBOUND:                -0.375
REMARK SMILES Nc1ccn([C@@H]2O[C@H](CO)[C@@H](O)[C@@H]2O)c(=O)n1
REMARK SMILES IDX 6 1 7 2 8 3 11 4 13 5 5 6 2 7 17 8 3 9 15 10 4 11 16 12 1 13
REMARK SMILES IDX 14 16 9 18 10 19 12 21
REMARK H PARENT 1 14 1 15 14 17 10 20 12 22
REMARK Flexibility Score: inf
ROOT
ATOM      1  C   UNL     1      18.099  34.024  11.610  1.00  0.00     0.255 C 
ATOM      2  O   UNL     1      19.402  33.594  11.933  1.00  0.00    -0.347 OA
ATOM      3  C   UNL     1      19.486  33.522  13.342  1.00  0.00     0.178 C 
ATOM      4  C   UNL     1      18.093  33.764  13.952  1.00  0.00     0.179 C 
ATOM      5  C   UNL     1      17.170  33.670  12.765  1.00  0.00     0.196 C 
ENDROOT
BRANCH   1   6
ATOM      6  N   UNL     1      17.643  33.451  10.325  1.00  0.00    -0.270 N 
ATOM      7  C   UNL     1      16.879  32.353   7.906  1.00  0.00     0.130 A 
ATOM      8  N   UNL     1      16.304  33.492   8.367  1.00  0.00    -0.176 NA
ATOM      9  C   UNL     1      17.879  31.738   8.657  1.00  0.00     0.065 A 
ATOM     10  C   UNL     1      16.673  34.047   9.551  1.00  0.00     0.351 A 
ATOM     11  C   UNL     1      18.252  32.313   9.870  1.00  0.00     0.097 A 
ATOM     12  O   UNL     1      16.118  35.118   9.916  1.00  0.00    -0.246 OA
BRANCH   7  13
ATOM     13  N   UNL     1      16.464  31.800   6.658  1.00  0.00    -0.383 N 
ATOM     14  H   UNL     1      15.529  31.344   6.570  1.00  0.00     0.158 HD
ATOM     15  H   UNL     1      17.084  31.842   5.818  1.00  0.00     0.158 HD
ENDBRANCH   7  13
ENDBRANCH   1   6
BRANCH   5  16
ATOM     16  O   UNL     1      16.684  32.355  12.652  1.00  0.00    -0.386 OA
ATOM     17  H   UNL     1      17.452  31.750  12.820  1.00  0.00     0.211 HD
ENDBRANCH   5  16
BRANCH   3  18
ATOM     18  C   UNL     1      20.055  32.156  13.738  1.00  0.00     0.191 C 
BRANCH  18  19
ATOM     19  O   UNL     1      20.649  31.543  12.627  1.00  0.00    -0.394 OA
ATOM     20  H   UNL     1      21.399  32.132  12.356  1.00  0.00     0.210 HD
ENDBRANCH  18  19
ENDBRANCH   3  18
BRANCH   4  21
ATOM     21  O   UNL     1      18.020  35.054  14.504  1.00  0.00    -0.387 OA
ATOM     22  H   UNL     1      18.749  35.115  15.175  1.00  0.00     0.211 HD
ENDBRANCH   4  21
TORSDOF 6
ENDMDL
MODEL 15
REMARK VINA RESULT:    -5.300      4.332      5.503
REMARK INTER + INTRA:          -6.914
REMARK INTER:                  -6.478
REMARK INTRA:                  -0.436
REMARK UNBOUND:                -0.375
REMARK SMILES Nc1ccn([C@@H]2O[C@H](CO)[C@@H](O)[C@@H]2O)c(=O)n1
REMARK SMILES IDX 6 1 7 2 8 3 11 4 13 5 5 6 2 7 17 8 3 9 15 10 4 11 16 12 1 13
REMARK SMILES IDX 14 16 9 18 10 19 12 21
REMARK H PARENT 1 14 1 15 14 17 10 20 12 22
REMARK Flexibility Score: inf
ROOT
ATOM      1  C   UNL     1      19.697  34.724  16.254  1.00  0.00     0.255 C 
ATOM      2  O   UNL     1      20.113  35.356  15.065  1.00  0.00    -0.347 OA
ATOM      3  C   UNL     1      21.387  34.840  14.735  1.00  0.00     0.178 C 
ATOM      4  C   UNL     1      21.733  33.682  15.689  1.00  0.00     0.179 C 
ATOM      5  C   UNL     1      20.425  33.390  16.377  1.00  0.00     0.196 C 
ENDROOT
BRANCH   1   6
ATOM      6  N   UNL     1      18.226  34.569  16.299  1.00  0.00    -0.270 N 
ATOM      7  C   UNL     1      15.472  34.345  16.316  1.00  0.00     0.130 A 
ATOM      8  N   UNL     1      16.188  34.221  17.462  1.00  0.00    -0.176 NA
ATOM      9  C   UNL     1      16.135  34.605  15.119  1.00  0.00     0.065 A 
ATOM     10  C   UNL     1      17.542  34.334  17.470  1.00  0.00     0.351 A 
ATOM     11  C   UNL     1      17.523  34.720  15.135  1.00  0.00     0.097 A 
ATOM     12  O   UNL     1      18.151  34.230  18.568  1.00  0.00    -0.246 OA
BRANCH   7  13
ATOM     13  N   UNL     1      14.051  34.218  16.348  1.00  0.00    -0.383 N 
ATOM     14  H   UNL     1      13.595  33.582  17.039  1.00  0.00     0.158 HD
ATOM     15  H   UNL     1      13.448  34.755  15.685  1.00  0.00     0.158 HD
ENDBRANCH   7  13
ENDBRANCH   1   6
BRANCH   5  16
ATOM     16  O   UNL     1      19.750  32.368  15.686  1.00  0.00    -0.386 OA
ATOM     17  H   UNL     1      20.390  31.616  15.590  1.00  0.00     0.211 HD
ENDBRANCH   5  16
BRANCH   3  18
ATOM     18  C   UNL     1      21.379  34.391  13.270  1.00  0.00     0.191 C 
BRANCH  18  19
ATOM     19  O   UNL     1      20.151  33.795  12.957  1.00  0.00    -0.394 OA
ATOM     20  H   UNL     1      19.895  34.143  12.064  1.00  0.00     0.210 HD
ENDBRANCH  18  19
ENDBRANCH   3  18
BRANCH   4  21
ATOM     21  O   UNL     1      22.681  34.100  16.639  1.00  0.00    -0.387 OA
ATOM     22  H   UNL     1      23.305  33.339  16.768  1.00  0.00     0.211 HD
ENDBRANCH   4  21
TORSDOF 6
ENDMDL
