MODEL 1
REMARK VINA RESULT:    -8.774      0.000      0.000
REMARK INTER + INTRA:         -11.620
REMARK INTER:                 -11.082
REMARK INTRA:                  -0.538
REMARK UNBOUND:                -0.538
REMARK SMILES CN(C)[C@@H]1C(O)=C(C(N)=O)C(=O)[C@@]2(O)C(O)=C3C(=O)c4c(O)ccc(Cl)c4[C@@H](O)[C@H]3C[C@@H]12
REMARK SMILES IDX 30 1 31 2 32 3 4 4 5 5 7 6 11 7 12 8 13 9 15 10 17 11 18 12
REMARK SMILES IDX 19 13 20 14 27 15 28 16 25 17 26 18 24 19 23 20 21 21 29 22
REMARK SMILES IDX 16 24 2 26 1 27 3 28 14 29 6 31 22 33 8 35 9 36 10 37
REMARK H PARENT 29 23 16 25 14 30 6 32 22 34 9 38 9 39
REMARK Flexibility Score: inf
ROOT
ATOM      1  C   UNL     1      11.018  11.973  14.301  1.00  0.00     0.061 C 
ATOM      2  C   UNL     1      12.147  11.121  14.899  1.00  0.00     0.021 C 
ATOM      3  C   UNL     1      11.632  10.378  16.144  1.00  0.00     0.062 C 
ATOM      4  C   UNL     1      12.683   9.373  16.686  1.00  0.00     0.130 C 
ATOM      5  C   UNL     1      13.847  10.060  17.379  1.00  0.00     0.126 C 
ATOM      6  C   UNL     1      13.731  11.302  17.906  1.00  0.00     0.125 C 
ATOM      7  C   UNL     1      12.425  12.015  17.870  1.00  0.00     0.211 C 
ATOM      8  O   UNL     1      12.332  13.155  18.417  1.00  0.00    -0.290 OA
ATOM      9  C   UNL     1      11.195  11.399  17.228  1.00  0.00     0.190 C 
ATOM     10  C   UNL     1      10.325  12.517  16.645  1.00  0.00     0.140 C 
ATOM     11  C   UNL     1      10.321  12.841  15.331  1.00  0.00     0.047 C 
ATOM     12  C   UNL     1       9.506  13.971  14.800  1.00  0.00     0.197 C 
ATOM     13  O   UNL     1       8.992  14.817  15.589  1.00  0.00    -0.289 OA
ATOM     14  C   UNL     1       9.393  14.173  13.333  1.00  0.00     0.071 A 
ATOM     15  C   UNL     1      10.413  13.657  12.497  1.00  0.00     0.015 A 
ATOM     16  C   UNL     1      11.523  12.808  13.100  1.00  0.00     0.154 C 
ATOM     17  C   UNL     1      10.429  14.000  11.125  1.00  0.00     0.047 A 
ATOM     18  Cl  UNL     1      11.730  13.499  10.051  1.00  0.00    -0.084 Cl
ATOM     19  C   UNL     1       9.413  14.794  10.589  1.00  0.00     0.025 A 
ATOM     20  C   UNL     1       8.374  15.244  11.394  1.00  0.00     0.048 A 
ATOM     21  C   UNL     1       8.330  14.913  12.755  1.00  0.00     0.127 A 
ENDROOT
BRANCH  16  22
ATOM     22  O   UNL     1      12.619  13.611  13.442  1.00  0.00    -0.388 OA
ATOM     23  H   UNL     1      13.213  13.669  12.652  1.00  0.00     0.211 HD
ENDBRANCH  16  22
BRANCH  10  24
ATOM     24  O   UNL     1       9.539  13.253  17.530  1.00  0.00    -0.508 OA
ATOM     25  H   UNL     1       8.584  13.005  17.724  1.00  0.00     0.293 HD
ENDBRANCH  10  24
BRANCH   4  26
ATOM     26  N   UNL     1      11.998   8.333  17.518  1.00  0.00    -0.299 NA
ATOM     27  C   UNL     1      12.727   7.873  18.716  1.00  0.00     0.105 C 
ATOM     28  C   UNL     1      11.582   7.175  16.705  1.00  0.00     0.105 C 
ENDBRANCH   4  26
BRANCH   9  29
ATOM     29  O   UNL     1      10.472  10.735  18.234  1.00  0.00    -0.374 OA
ATOM     30  H   UNL     1      11.116  10.205  18.773  1.00  0.00     0.212 HD
ENDBRANCH   9  29
BRANCH   5  31
ATOM     31  O   UNL     1      15.031   9.315  17.494  1.00  0.00    -0.510 OA
ATOM     32  H   UNL     1      15.315   8.608  16.840  1.00  0.00     0.293 HD
ENDBRANCH   5  31
BRANCH  21  33
ATOM     33  O   UNL     1       7.205  15.309  13.481  1.00  0.00    -0.507 OA
ATOM     34  H   UNL     1       7.156  16.182  13.999  1.00  0.00     0.293 HD
ENDBRANCH  21  33
BRANCH   6  35
ATOM     35  C   UNL     1      14.894  11.999  18.510  1.00  0.00     0.255 C 
ATOM     36  N   UNL     1      14.847  12.485  19.856  1.00  0.00    -0.365 N 
ATOM     37  O   UNL     1      15.957  12.130  17.841  1.00  0.00    -0.269 OA
ATOM     38  H   UNL     1      15.685  12.940  20.282  1.00  0.00     0.159 HD
ATOM     39  H   UNL     1      14.006  12.324  20.458  1.00  0.00     0.159 HD
ENDBRANCH   6  35
TORSDOF 7
ENDMDL
MODEL 2
REMARK VINA RESULT:    -8.424      3.577      7.757
REMARK INTER + INTRA:         -11.178
REMARK INTER:                 -10.662
REMARK INTRA:                  -0.515
REMARK UNBOUND:                -0.538
REMARK SMILES CN(C)[C@@H]1C(O)=C(C(N)=O)C(=O)[C@@]2(O)C(O)=C3C(=O)c4c(O)ccc(Cl)c4[C@@H](O)[C@H]3C[C@@H]12
REMARK SMILES IDX 30 1 31 2 32 3 4 4 5 5 7 6 11 7 12 8 13 9 15 10 17 11 18 12
REMARK SMILES IDX 19 13 20 14 27 15 28 16 25 17 26 18 24 19 23 20 21 21 29 22
REMARK SMILES IDX 16 24 2 26 1 27 3 28 14 29 6 31 22 33 8 35 9 36 10 37
REMARK H PARENT 29 23 16 25 14 30 6 32 22 34 9 38 9 39
REMARK Flexibility Score: inf
ROOT
ATOM      1  C   UNL     1      12.569  12.462  13.788  1.00  0.00     0.061 C 
ATOM      2  C   UNL     1      11.619  12.661  12.597  1.00  0.00     0.021 C 
ATOM      3  C   UNL     1      12.019  13.928  11.822  1.00  0.00     0.062 C 
ATOM      4  C   UNL     1      11.199  14.081  10.513  1.00  0.00     0.130 C 
ATOM      5  C   UNL     1       9.759  14.495  10.769  1.00  0.00     0.126 C 
ATOM      6  C   UNL     1       9.393  15.139  11.903  1.00  0.00     0.125 C 
ATOM      7  C   UNL     1      10.415  15.516  12.917  1.00  0.00     0.211 C 
ATOM      8  O   UNL     1      10.052  16.163  13.944  1.00  0.00    -0.290 OA
ATOM      9  C   UNL     1      11.883  15.174  12.738  1.00  0.00     0.190 C 
ATOM     10  C   UNL     1      12.513  14.944  14.116  1.00  0.00     0.140 C 
ATOM     11  C   UNL     1      12.732  13.712  14.631  1.00  0.00     0.047 C 
ATOM     12  C   UNL     1      13.295  13.518  15.998  1.00  0.00     0.197 C 
ATOM     13  O   UNL     1      13.349  14.486  16.812  1.00  0.00    -0.289 OA
ATOM     14  C   UNL     1      13.685  12.157  16.449  1.00  0.00     0.071 A 
ATOM     15  C   UNL     1      13.076  11.038  15.830  1.00  0.00     0.015 A 
ATOM     16  C   UNL     1      12.143  11.247  14.646  1.00  0.00     0.154 C 
ATOM     17  C   UNL     1      13.285   9.747  16.368  1.00  0.00     0.047 A 
ATOM     18  Cl  UNL     1      12.467   8.325  15.731  1.00  0.00    -0.084 Cl
ATOM     19  C   UNL     1      14.130   9.573  17.466  1.00  0.00     0.025 A 
ATOM     20  C   UNL     1      14.782  10.662  18.031  1.00  0.00     0.048 A 
ATOM     21  C   UNL     1      14.600  11.951  17.513  1.00  0.00     0.127 A 
ENDROOT
BRANCH  16  22
ATOM     22  O   UNL     1      10.816  11.352  15.085  1.00  0.00    -0.388 OA
ATOM     23  H   UNL     1      10.303  11.836  14.391  1.00  0.00     0.211 HD
ENDBRANCH  16  22
BRANCH  10  24
ATOM     24  O   UNL     1      12.830  16.067  14.878  1.00  0.00    -0.508 OA
ATOM     25  H   UNL     1      13.152  15.990  15.827  1.00  0.00     0.293 HD
ENDBRANCH  10  24
BRANCH   4  26
ATOM     26  N   UNL     1      11.935  14.972   9.562  1.00  0.00    -0.299 NA
ATOM     27  C   UNL     1      11.312  15.171   8.239  1.00  0.00     0.105 C 
ATOM     28  C   UNL     1      13.339  14.549   9.400  1.00  0.00     0.105 C 
ENDBRANCH   4  26
BRANCH   9  29
ATOM     29  O   UNL     1      12.509  16.275  12.128  1.00  0.00    -0.374 OA
ATOM     30  H   UNL     1      11.799  16.885  11.797  1.00  0.00     0.212 HD
ENDBRANCH   9  29
BRANCH   5  31
ATOM     31  O   UNL     1       8.841  14.224   9.742  1.00  0.00    -0.510 OA
ATOM     32  H   UNL     1       8.750  14.779   8.910  1.00  0.00     0.293 HD
ENDBRANCH   5  31
BRANCH  21  33
ATOM     33  O   UNL     1      15.365  12.983  18.060  1.00  0.00    -0.507 OA
ATOM     34  H   UNL     1      15.661  13.797  17.529  1.00  0.00     0.293 HD
ENDBRANCH  21  33
BRANCH   6  35
ATOM     35  C   UNL     1       7.973  15.469  12.182  1.00  0.00     0.255 C 
ATOM     36  N   UNL     1       7.573  16.808  12.494  1.00  0.00    -0.365 N 
ATOM     37  O   UNL     1       7.097  14.562  12.104  1.00  0.00    -0.269 OA
ATOM     38  H   UNL     1       6.565  17.033  12.651  1.00  0.00     0.159 HD
ATOM     39  H   UNL     1       8.266  17.592  12.492  1.00  0.00     0.159 HD
ENDBRANCH   6  35
TORSDOF 7
ENDMDL
MODEL 3
REMARK VINA RESULT:    -8.103      3.165      4.548
REMARK INTER + INTRA:         -10.772
REMARK INTER:                 -10.570
REMARK INTRA:                  -0.202
REMARK UNBOUND:                -0.538
REMARK SMILES CN(C)[C@@H]1C(O)=C(C(N)=O)C(=O)[C@@]2(O)C(O)=C3C(=O)c4c(O)ccc(Cl)c4[C@@H](O)[C@H]3C[C@@H]12
REMARK SMILES IDX 30 1 31 2 32 3 4 4 5 5 7 6 11 7 12 8 13 9 15 10 17 11 18 12
REMARK SMILES IDX 19 13 20 14 27 15 28 16 25 17 26 18 24 19 23 20 21 21 29 22
REMARK SMILES IDX 16 24 2 26 1 27 3 28 14 29 6 31 22 33 8 35 9 36 10 37
REMARK H PARENT 29 23 16 25 14 30 6 32 22 34 9 38 9 39
REMARK Flexibility Score: inf
ROOT
ATOM      1  C   UNL     1      13.262  12.493  16.508  1.00  0.00     0.061 C 
ATOM      2  C   UNL     1      12.968  12.027  17.942  1.00  0.00     0.021 C 
ATOM      3  C   UNL     1      13.156  10.503  18.040  1.00  0.00     0.062 C 
ATOM      4  C   UNL     1      13.038  10.005  19.505  1.00  0.00     0.130 C 
ATOM      5  C   UNL     1      11.608  10.024  20.017  1.00  0.00     0.126 C 
ATOM      6  C   UNL     1      10.548   9.975  19.175  1.00  0.00     0.125 C 
ATOM      7  C   UNL     1      10.759   9.842  17.707  1.00  0.00     0.211 C 
ATOM      8  O   UNL     1       9.750   9.747  16.948  1.00  0.00    -0.290 OA
ATOM      9  C   UNL     1      12.150   9.783  17.102  1.00  0.00     0.190 C 
ATOM     10  C   UNL     1      12.114  10.416  15.707  1.00  0.00     0.140 C 
ATOM     11  C   UNL     1      12.527  11.681  15.459  1.00  0.00     0.047 C 
ATOM     12  C   UNL     1      12.427  12.290  14.102  1.00  0.00     0.197 C 
ATOM     13  O   UNL     1      11.727  11.740  13.202  1.00  0.00    -0.289 OA
ATOM     14  C   UNL     1      13.057  13.610  13.838  1.00  0.00     0.071 A 
ATOM     15  C   UNL     1      13.281  14.483  14.930  1.00  0.00     0.015 A 
ATOM     16  C   UNL     1      12.994  14.008  16.347  1.00  0.00     0.154 C 
ATOM     17  C   UNL     1      13.698  15.812  14.683  1.00  0.00     0.047 A 
ATOM     18  Cl  UNL     1      13.879  16.991  15.978  1.00  0.00    -0.084 Cl
ATOM     19  C   UNL     1      13.941  16.240  13.376  1.00  0.00     0.025 A 
ATOM     20  C   UNL     1      13.787  15.362  12.310  1.00  0.00     0.048 A 
ATOM     21  C   UNL     1      13.382  14.038  12.526  1.00  0.00     0.127 A 
ENDROOT
BRANCH  16  22
ATOM     22  O   UNL     1      11.689  14.355  16.721  1.00  0.00    -0.388 OA
ATOM     23  H   UNL     1      11.118  13.553  16.616  1.00  0.00     0.211 HD
ENDBRANCH  16  22
BRANCH  10  24
ATOM     24  O   UNL     1      11.588   9.654  14.665  1.00  0.00    -0.508 OA
ATOM     25  H   UNL     1      10.839   9.000  14.812  1.00  0.00     0.293 HD
ENDBRANCH  10  24
BRANCH   4  26
ATOM     26  N   UNL     1      13.722   8.679  19.640  1.00  0.00    -0.299 NA
ATOM     27  C   UNL     1      12.843   7.495  19.691  1.00  0.00     0.105 C 
ATOM     28  C   UNL     1      14.656   8.664  20.782  1.00  0.00     0.105 C 
ENDBRANCH   4  26
BRANCH   9  29
ATOM     29  O   UNL     1      12.509   8.430  16.980  1.00  0.00    -0.374 OA
ATOM     30  H   UNL     1      13.128   8.347  16.207  1.00  0.00     0.212 HD
ENDBRANCH   9  29
BRANCH   5  31
ATOM     31  O   UNL     1      11.445  10.037  21.411  1.00  0.00    -0.510 OA
ATOM     32  H   UNL     1      12.156  10.332  22.056  1.00  0.00     0.293 HD
ENDBRANCH   5  31
BRANCH  21  33
ATOM     33  O   UNL     1      13.350  13.183  11.423  1.00  0.00    -0.507 OA
ATOM     34  H   UNL     1      12.500  12.735  11.092  1.00  0.00     0.293 HD
ENDBRANCH  21  33
BRANCH   6  35
ATOM     35  C   UNL     1       9.155  10.076  19.676  1.00  0.00     0.255 C 
ATOM     36  N   UNL     1       8.281  11.117  19.228  1.00  0.00    -0.365 N 
ATOM     37  O   UNL     1       8.719   9.204  20.480  1.00  0.00    -0.269 OA
ATOM     38  H   UNL     1       7.291  11.153  19.559  1.00  0.00     0.159 HD
ATOM     39  H   UNL     1       8.592  11.807  18.505  1.00  0.00     0.159 HD
ENDBRANCH   6  35
TORSDOF 7
ENDMDL
MODEL 4
REMARK VINA RESULT:    -8.059      3.102      7.376
REMARK INTER + INTRA:         -10.717
REMARK INTER:                 -10.148
REMARK INTRA:                  -0.569
REMARK UNBOUND:                -0.538
REMARK SMILES CN(C)[C@@H]1C(O)=C(C(N)=O)C(=O)[C@@]2(O)C(O)=C3C(=O)c4c(O)ccc(Cl)c4[C@@H](O)[C@H]3C[C@@H]12
REMARK SMILES IDX 30 1 31 2 32 3 4 4 5 5 7 6 11 7 12 8 13 9 15 10 17 11 18 12
REMARK SMILES IDX 19 13 20 14 27 15 28 16 25 17 26 18 24 19 23 20 21 21 29 22
REMARK SMILES IDX 16 24 2 26 1 27 3 28 14 29 6 31 22 33 8 35 9 36 10 37
REMARK H PARENT 29 23 16 25 14 30 6 32 22 34 9 38 9 39
REMARK Flexibility Score: inf
ROOT
ATOM      1  C   UNL     1      12.481  11.073  15.442  1.00  0.00     0.061 C 
ATOM      2  C   UNL     1      11.696  11.591  14.227  1.00  0.00     0.021 C 
ATOM      3  C   UNL     1      12.395  12.836  13.652  1.00  0.00     0.062 C 
ATOM      4  C   UNL     1      11.740  13.298  12.323  1.00  0.00     0.130 C 
ATOM      5  C   UNL     1      10.386  13.955  12.535  1.00  0.00     0.126 C 
ATOM      6  C   UNL     1      10.046  14.524  13.716  1.00  0.00     0.125 C 
ATOM      7  C   UNL     1      11.025  14.571  14.837  1.00  0.00     0.211 C 
ATOM      8  O   UNL     1      10.698  15.155  15.913  1.00  0.00    -0.290 OA
ATOM      9  C   UNL     1      12.413  13.970  14.712  1.00  0.00     0.190 C 
ATOM     10  C   UNL     1      12.861  13.463  16.087  1.00  0.00     0.140 C 
ATOM     11  C   UNL     1      12.798  12.160  16.450  1.00  0.00     0.047 C 
ATOM     12  C   UNL     1      13.188  11.703  17.815  1.00  0.00     0.197 C 
ATOM     13  O   UNL     1      13.350  12.540  18.750  1.00  0.00    -0.289 OA
ATOM     14  C   UNL     1      13.275  10.249  18.108  1.00  0.00     0.071 A 
ATOM     15  C   UNL     1      12.525   9.351  17.310  1.00  0.00     0.015 A 
ATOM     16  C   UNL     1      11.759   9.875  16.104  1.00  0.00     0.154 C 
ATOM     17  C   UNL     1      12.439   7.991  17.686  1.00  0.00     0.047 A 
ATOM     18  Cl  UNL     1      11.430   6.841  16.816  1.00  0.00    -0.084 Cl
ATOM     19  C   UNL     1      13.134   7.528  18.805  1.00  0.00     0.025 A 
ATOM     20  C   UNL     1      13.925   8.394  19.550  1.00  0.00     0.048 A 
ATOM     21  C   UNL     1      14.034   9.745  19.195  1.00  0.00     0.127 A 
ENDROOT
BRANCH  16  22
ATOM     22  O   UNL     1      10.441  10.188  16.463  1.00  0.00    -0.388 OA
ATOM     23  H   UNL     1      10.218  11.067  16.069  1.00  0.00     0.211 HD
ENDBRANCH  16  22
BRANCH  10  24
ATOM     24  O   UNL     1      13.313  14.406  17.009  1.00  0.00    -0.508 OA
ATOM     25  H   UNL     1      13.799  15.238  16.721  1.00  0.00     0.293 HD
ENDBRANCH  10  24
BRANCH   4  26
ATOM     26  N   UNL     1      12.713  14.130  11.548  1.00  0.00    -0.299 NA
ATOM     27  C   UNL     1      12.203  15.412  11.024  1.00  0.00     0.105 C 
ATOM     28  C   UNL     1      13.343  13.356  10.461  1.00  0.00     0.105 C 
ENDBRANCH   4  26
BRANCH   9  29
ATOM     29  O   UNL     1      13.287  14.989  14.295  1.00  0.00    -0.374 OA
ATOM     30  H   UNL     1      12.736  15.764  14.006  1.00  0.00     0.212 HD
ENDBRANCH   9  29
BRANCH   5  31
ATOM     31  O   UNL     1       9.530  13.991  11.423  1.00  0.00    -0.510 OA
ATOM     32  H   UNL     1       8.760  13.362  11.287  1.00  0.00     0.293 HD
ENDBRANCH   5  31
BRANCH  21  33
ATOM     33  O   UNL     1      14.927  10.535  19.921  1.00  0.00    -0.507 OA
ATOM     34  H   UNL     1      15.447  10.191  20.724  1.00  0.00     0.293 HD
ENDBRANCH  21  33
BRANCH   6  35
ATOM     35  C   UNL     1       8.694  15.093  13.942  1.00  0.00     0.255 C 
ATOM     36  N   UNL     1       7.875  14.643  15.027  1.00  0.00    -0.365 N 
ATOM     37  O   UNL     1       8.275  16.017  13.190  1.00  0.00    -0.269 OA
ATOM     38  H   UNL     1       6.941  15.079  15.197  1.00  0.00     0.159 HD
ATOM     39  H   UNL     1       8.227  13.933  15.709  1.00  0.00     0.159 HD
ENDBRANCH   6  35
TORSDOF 7
ENDMDL
MODEL 5
REMARK VINA RESULT:    -8.018      3.968      7.581
REMARK INTER + INTRA:         -10.665
REMARK INTER:                 -10.113
REMARK INTRA:                  -0.553
REMARK UNBOUND:                -0.538
REMARK SMILES CN(C)[C@@H]1C(O)=C(C(N)=O)C(=O)[C@@]2(O)C(O)=C3C(=O)c4c(O)ccc(Cl)c4[C@@H](O)[C@H]3C[C@@H]12
REMARK SMILES IDX 30 1 31 2 32 3 4 4 5 5 7 6 11 7 12 8 13 9 15 10 17 11 18 12
REMARK SMILES IDX 19 13 20 14 27 15 28 16 25 17 26 18 24 19 23 20 21 21 29 22
REMARK SMILES IDX 16 24 2 26 1 27 3 28 14 29 6 31 22 33 8 35 9 36 10 37
REMARK H PARENT 29 23 16 25 14 30 6 32 22 34 9 38 9 39
REMARK Flexibility Score: inf
ROOT
ATOM      1  C   UNL     1      14.337  12.815  19.022  1.00  0.00     0.061 C 
ATOM      2  C   UNL     1      13.523  12.051  17.966  1.00  0.00     0.021 C 
ATOM      3  C   UNL     1      12.054  11.959  18.411  1.00  0.00     0.062 C 
ATOM      4  C   UNL     1      11.157  11.348  17.302  1.00  0.00     0.130 C 
ATOM      5  C   UNL     1      11.369   9.852  17.135  1.00  0.00     0.126 C 
ATOM      6  C   UNL     1      11.863   9.085  18.136  1.00  0.00     0.125 C 
ATOM      7  C   UNL     1      12.161   9.685  19.466  1.00  0.00     0.211 C 
ATOM      8  O   UNL     1      12.573   8.935  20.400  1.00  0.00    -0.290 OA
ATOM      9  C   UNL     1      11.952  11.164  19.740  1.00  0.00     0.190 C 
ATOM     10  C   UNL     1      12.988  11.631  20.768  1.00  0.00     0.140 C 
ATOM     11  C   UNL     1      14.119  12.293  20.429  1.00  0.00     0.047 C 
ATOM     12  C   UNL     1      15.138  12.685  21.444  1.00  0.00     0.197 C 
ATOM     13  O   UNL     1      15.102  12.195  22.611  1.00  0.00    -0.289 OA
ATOM     14  C   UNL     1      16.268  13.566  21.052  1.00  0.00     0.071 A 
ATOM     15  C   UNL     1      16.658  13.602  19.691  1.00  0.00     0.015 A 
ATOM     16  C   UNL     1      15.840  12.849  18.653  1.00  0.00     0.154 C 
ATOM     17  C   UNL     1      17.845  14.279  19.325  1.00  0.00     0.047 A 
ATOM     18  Cl  UNL     1      18.458  14.265  17.676  1.00  0.00    -0.084 Cl
ATOM     19  C   UNL     1      18.595  14.951  20.292  1.00  0.00     0.025 A 
ATOM     20  C   UNL     1      18.177  14.973  21.617  1.00  0.00     0.048 A 
ATOM     21  C   UNL     1      17.001  14.318  22.005  1.00  0.00     0.127 A 
ENDROOT
BRANCH  16  22
ATOM     22  O   UNL     1      16.363  11.563  18.460  1.00  0.00    -0.388 OA
ATOM     23  H   UNL     1      16.548  11.451  17.494  1.00  0.00     0.211 HD
ENDBRANCH  16  22
BRANCH  10  24
ATOM     24  O   UNL     1      12.761  11.312  22.106  1.00  0.00    -0.508 OA
ATOM     25  H   UNL     1      13.424  11.544  22.826  1.00  0.00     0.293 HD
ENDBRANCH  10  24
BRANCH   4  26
ATOM     26  N   UNL     1       9.732  11.744  17.536  1.00  0.00    -0.299 NA
ATOM     27  C   UNL     1       8.757  10.641  17.644  1.00  0.00     0.105 C 
ATOM     28  C   UNL     1       9.272  12.727  16.536  1.00  0.00     0.105 C 
ENDBRANCH   4  26
BRANCH   9  29
ATOM     29  O   UNL     1      10.666  11.323  20.285  1.00  0.00    -0.374 OA
ATOM     30  H   UNL     1      10.253  12.122  19.864  1.00  0.00     0.212 HD
ENDBRANCH   9  29
BRANCH   5  31
ATOM     31  O   UNL     1      10.973   9.300  15.907  1.00  0.00    -0.510 OA
ATOM     32  H   UNL     1      10.608   8.370  15.801  1.00  0.00     0.293 HD
ENDBRANCH   5  31
BRANCH  21  33
ATOM     33  O   UNL     1      16.583  14.469  23.329  1.00  0.00    -0.507 OA
ATOM     34  H   UNL     1      16.367  13.683  23.937  1.00  0.00     0.293 HD
ENDBRANCH  21  33
BRANCH   6  35
ATOM     35  C   UNL     1      12.143   7.641  17.941  1.00  0.00     0.255 C 
ATOM     36  N   UNL     1      13.451   7.105  18.164  1.00  0.00    -0.365 N 
ATOM     37  O   UNL     1      11.203   6.865  17.611  1.00  0.00    -0.269 OA
ATOM     38  H   UNL     1      13.626   6.081  18.060  1.00  0.00     0.159 HD
ATOM     39  H   UNL     1      14.230   7.713  18.510  1.00  0.00     0.159 HD
ENDBRANCH   6  35
TORSDOF 7
ENDMDL
MODEL 6
REMARK VINA RESULT:    -7.865      2.472      3.650
REMARK INTER + INTRA:         -10.473
REMARK INTER:                  -9.966
REMARK INTRA:                  -0.507
REMARK UNBOUND:                -0.538
REMARK SMILES CN(C)[C@@H]1C(O)=C(C(N)=O)C(=O)[C@@]2(O)C(O)=C3C(=O)c4c(O)ccc(Cl)c4[C@@H](O)[C@H]3C[C@@H]12
REMARK SMILES IDX 30 1 31 2 32 3 4 4 5 5 7 6 11 7 12 8 13 9 15 10 17 11 18 12
REMARK SMILES IDX 19 13 20 14 27 15 28 16 25 17 26 18 24 19 23 20 21 21 29 22
REMARK SMILES IDX 16 24 2 26 1 27 3 28 14 29 6 31 22 33 8 35 9 36 10 37
REMARK H PARENT 29 23 16 25 14 30 6 32 22 34 9 38 9 39
REMARK Flexibility Score: inf
ROOT
ATOM      1  C   UNL     1      11.115  12.903  15.305  1.00  0.00     0.061 C 
ATOM      2  C   UNL     1      10.641  11.588  15.943  1.00  0.00     0.021 C 
ATOM      3  C   UNL     1      10.581  11.747  17.472  1.00  0.00     0.062 C 
ATOM      4  C   UNL     1       9.946  10.505  18.152  1.00  0.00     0.130 C 
ATOM      5  C   UNL     1      10.871   9.300  18.152  1.00  0.00     0.126 C 
ATOM      6  C   UNL     1      12.216   9.433  18.055  1.00  0.00     0.125 C 
ATOM      7  C   UNL     1      12.836  10.785  18.003  1.00  0.00     0.211 C 
ATOM      8  O   UNL     1      14.099  10.880  17.964  1.00  0.00    -0.290 OA
ATOM      9  C   UNL     1      11.997  12.051  18.029  1.00  0.00     0.190 C 
ATOM     10  C   UNL     1      12.711  13.138  17.220  1.00  0.00     0.140 C 
ATOM     11  C   UNL     1      12.372  13.454  15.948  1.00  0.00     0.047 C 
ATOM     12  C   UNL     1      13.122  14.478  15.164  1.00  0.00     0.197 C 
ATOM     13  O   UNL     1      14.244  14.900  15.568  1.00  0.00    -0.289 OA
ATOM     14  C   UNL     1      12.603  14.919  13.844  1.00  0.00     0.071 A 
ATOM     15  C   UNL     1      11.746  14.049  13.127  1.00  0.00     0.015 A 
ATOM     16  C   UNL     1      11.276  12.754  13.773  1.00  0.00     0.154 C 
ATOM     17  C   UNL     1      11.396  14.361  11.793  1.00  0.00     0.047 A 
ATOM     18  Cl  UNL     1      10.436  13.270  10.799  1.00  0.00    -0.084 Cl
ATOM     19  C   UNL     1      11.848  15.545  11.207  1.00  0.00     0.025 A 
ATOM     20  C   UNL     1      12.634  16.432  11.933  1.00  0.00     0.048 A 
ATOM     21  C   UNL     1      12.989  16.152  13.259  1.00  0.00     0.127 A 
ENDROOT
BRANCH  16  22
ATOM     22  O   UNL     1      12.137  11.701  13.434  1.00  0.00    -0.388 OA
ATOM     23  H   UNL     1      12.930  11.755  14.024  1.00  0.00     0.211 HD
ENDBRANCH  16  22
BRANCH  10  24
ATOM     24  O   UNL     1      13.785  13.793  17.821  1.00  0.00    -0.508 OA
ATOM     25  H   UNL     1      13.917  14.786  17.734  1.00  0.00     0.293 HD
ENDBRANCH  10  24
BRANCH   4  26
ATOM     26  N   UNL     1       9.431  10.885  19.507  1.00  0.00    -0.299 NA
ATOM     27  C   UNL     1       8.800   9.805  20.290  1.00  0.00     0.105 C 
ATOM     28  C   UNL     1       8.530  12.051  19.437  1.00  0.00     0.105 C 
ENDBRANCH   4  26
BRANCH   9  29
ATOM     29  O   UNL     1      11.896  12.471  19.367  1.00  0.00    -0.374 OA
ATOM     30  H   UNL     1      11.053  12.100  19.740  1.00  0.00     0.212 HD
ENDBRANCH   9  29
BRANCH   5  31
ATOM     31  O   UNL     1      10.261   8.046  18.315  1.00  0.00    -0.510 OA
ATOM     32  H   UNL     1      10.316   7.501  19.156  1.00  0.00     0.293 HD
ENDBRANCH   5  31
BRANCH  21  33
ATOM     33  O   UNL     1      13.690  17.134  13.962  1.00  0.00    -0.507 OA
ATOM     34  H   UNL     1      14.367  16.920  14.689  1.00  0.00     0.293 HD
ENDBRANCH  21  33
BRANCH   6  35
ATOM     35  C   UNL     1      13.107   8.249  17.974  1.00  0.00     0.255 C 
ATOM     36  N   UNL     1      13.825   7.945  16.773  1.00  0.00    -0.365 N 
ATOM     37  O   UNL     1      13.268   7.521  18.993  1.00  0.00    -0.269 OA
ATOM     38  H   UNL     1      14.478   7.131  16.741  1.00  0.00     0.159 HD
ATOM     39  H   UNL     1      13.768   8.574  15.938  1.00  0.00     0.159 HD
ENDBRANCH   6  35
TORSDOF 7
ENDMDL
MODEL 7
REMARK VINA RESULT:    -7.782      4.560      6.461
REMARK INTER + INTRA:         -10.367
REMARK INTER:                 -10.074
REMARK INTRA:                  -0.293
REMARK UNBOUND:                -0.538
REMARK SMILES CN(C)[C@@H]1C(O)=C(C(N)=O)C(=O)[C@@]2(O)C(O)=C3C(=O)c4c(O)ccc(Cl)c4[C@@H](O)[C@H]3C[C@@H]12
REMARK SMILES IDX 30 1 31 2 32 3 4 4 5 5 7 6 11 7 12 8 13 9 15 10 17 11 18 12
REMARK SMILES IDX 19 13 20 14 27 15 28 16 25 17 26 18 24 19 23 20 21 21 29 22
REMARK SMILES IDX 16 24 2 26 1 27 3 28 14 29 6 31 22 33 8 35 9 36 10 37
REMARK H PARENT 29 23 16 25 14 30 6 32 22 34 9 38 9 39
REMARK Flexibility Score: inf
ROOT
ATOM      1  C   UNL     1      15.697  12.159  17.571  1.00  0.00     0.061 C 
ATOM      2  C   UNL     1      15.086  10.838  18.063  1.00  0.00     0.021 C 
ATOM      3  C   UNL     1      13.750  10.585  17.344  1.00  0.00     0.062 C 
ATOM      4  C   UNL     1      13.177   9.182  17.678  1.00  0.00     0.130 C 
ATOM      5  C   UNL     1      12.619   9.098  19.090  1.00  0.00     0.126 C 
ATOM      6  C   UNL     1      12.206  10.200  19.760  1.00  0.00     0.125 C 
ATOM      7  C   UNL     1      12.234  11.535  19.103  1.00  0.00     0.211 C 
ATOM      8  O   UNL     1      11.793  12.540  19.735  1.00  0.00    -0.290 OA
ATOM      9  C   UNL     1      12.744  11.717  17.684  1.00  0.00     0.190 C 
ATOM     10  C   UNL     1      13.378  13.106  17.557  1.00  0.00     0.140 C 
ATOM     11  C   UNL     1      14.715  13.314  17.606  1.00  0.00     0.047 C 
ATOM     12  C   UNL     1      15.301  14.683  17.537  1.00  0.00     0.197 C 
ATOM     13  O   UNL     1      14.567  15.704  17.683  1.00  0.00    -0.289 OA
ATOM     14  C   UNL     1      16.773  14.849  17.411  1.00  0.00     0.071 A 
ATOM     15  C   UNL     1      17.613  13.802  17.861  1.00  0.00     0.015 A 
ATOM     16  C   UNL     1      16.998  12.494  18.339  1.00  0.00     0.154 C 
ATOM     17  C   UNL     1      19.010  14.012  17.931  1.00  0.00     0.047 A 
ATOM     18  Cl  UNL     1      20.105  12.804  18.594  1.00  0.00    -0.084 Cl
ATOM     19  C   UNL     1      19.559  15.223  17.506  1.00  0.00     0.025 A 
ATOM     20  C   UNL     1      18.741  16.226  17.000  1.00  0.00     0.048 A 
ATOM     21  C   UNL     1      17.355  16.042  16.912  1.00  0.00     0.127 A 
ENDROOT
BRANCH  16  22
ATOM     22  O   UNL     1      16.797  12.529  19.725  1.00  0.00    -0.388 OA
ATOM     23  H   UNL     1      16.870  11.603  20.067  1.00  0.00     0.211 HD
ENDBRANCH  16  22
BRANCH  10  24
ATOM     24  O   UNL     1      12.522  14.198  17.429  1.00  0.00    -0.508 OA
ATOM     25  H   UNL     1      12.721  14.957  16.800  1.00  0.00     0.293 HD
ENDBRANCH  10  24
BRANCH   4  26
ATOM     26  N   UNL     1      12.212   8.769  16.610  1.00  0.00    -0.299 NA
ATOM     27  C   UNL     1      11.685   7.393  16.705  1.00  0.00     0.105 C 
ATOM     28  C   UNL     1      12.762   9.006  15.262  1.00  0.00     0.105 C 
ENDBRANCH   4  26
BRANCH   9  29
ATOM     29  O   UNL     1      11.640  11.639  16.818  1.00  0.00    -0.374 OA
ATOM     30  H   UNL     1      10.897  11.198  17.308  1.00  0.00     0.212 HD
ENDBRANCH   9  29
BRANCH   5  31
ATOM     31  O   UNL     1      12.503   7.811  19.638  1.00  0.00    -0.510 OA
ATOM     32  H   UNL     1      12.485   7.621  20.624  1.00  0.00     0.293 HD
ENDBRANCH   5  31
BRANCH  21  33
ATOM     33  O   UNL     1      16.606  17.047  16.297  1.00  0.00    -0.507 OA
ATOM     34  H   UNL     1      16.935  17.571  15.491  1.00  0.00     0.293 HD
ENDBRANCH  21  33
BRANCH   6  35
ATOM     35  C   UNL     1      11.739  10.121  21.167  1.00  0.00     0.255 C 
ATOM     36  N   UNL     1      12.613  10.435  22.255  1.00  0.00    -0.365 N 
ATOM     37  O   UNL     1      10.538   9.811  21.406  1.00  0.00    -0.269 OA
ATOM     38  H   UNL     1      12.260  10.413  23.238  1.00  0.00     0.159 HD
ATOM     39  H   UNL     1      13.591  10.768  22.082  1.00  0.00     0.159 HD
ENDBRANCH   6  35
TORSDOF 7
ENDMDL
MODEL 8
REMARK VINA RESULT:    -7.738      5.736     10.883
REMARK INTER + INTRA:         -10.312
REMARK INTER:                  -9.765
REMARK INTRA:                  -0.547
REMARK UNBOUND:                -0.538
REMARK SMILES CN(C)[C@@H]1C(O)=C(C(N)=O)C(=O)[C@@]2(O)C(O)=C3C(=O)c4c(O)ccc(Cl)c4[C@@H](O)[C@H]3C[C@@H]12
REMARK SMILES IDX 30 1 31 2 32 3 4 4 5 5 7 6 11 7 12 8 13 9 15 10 17 11 18 12
REMARK SMILES IDX 19 13 20 14 27 15 28 16 25 17 26 18 24 19 23 20 21 21 29 22
REMARK SMILES IDX 16 24 2 26 1 27 3 28 14 29 6 31 22 33 8 35 9 36 10 37
REMARK H PARENT 29 23 16 25 14 30 6 32 22 34 9 38 9 39
REMARK Flexibility Score: inf
ROOT
ATOM      1  C   UNL     1       9.130  16.173  10.104  1.00  0.00     0.061 C 
ATOM      2  C   UNL     1       8.873  16.649   8.666  1.00  0.00     0.021 C 
ATOM      3  C   UNL     1       7.868  17.814   8.678  1.00  0.00     0.062 C 
ATOM      4  C   UNL     1       7.704  18.443   7.269  1.00  0.00     0.130 C 
ATOM      5  C   UNL     1       6.914  17.558   6.320  1.00  0.00     0.126 C 
ATOM      6  C   UNL     1       6.045  16.623   6.773  1.00  0.00     0.125 C 
ATOM      7  C   UNL     1       5.793  16.476   8.233  1.00  0.00     0.211 C 
ATOM      8  O   UNL     1       4.936  15.629   8.626  1.00  0.00    -0.290 OA
ATOM      9  C   UNL     1       6.510  17.335   9.258  1.00  0.00     0.190 C 
ATOM     10  C   UNL     1       6.691  16.527  10.547  1.00  0.00     0.140 C 
ATOM     11  C   UNL     1       7.853  15.917  10.880  1.00  0.00     0.047 C 
ATOM     12  C   UNL     1       7.983  15.089  12.113  1.00  0.00     0.197 C 
ATOM     13  O   UNL     1       6.953  14.724  12.752  1.00  0.00    -0.289 OA
ATOM     14  C   UNL     1       9.320  14.592  12.529  1.00  0.00     0.071 A 
ATOM     15  C   UNL     1      10.329  14.458  11.545  1.00  0.00     0.015 A 
ATOM     16  C   UNL     1      10.067  14.941  10.126  1.00  0.00     0.154 C 
ATOM     17  C   UNL     1      11.542  13.811  11.875  1.00  0.00     0.047 A 
ATOM     18  Cl  UNL     1      12.792  13.498  10.677  1.00  0.00    -0.084 Cl
ATOM     19  C   UNL     1      11.762  13.357  13.177  1.00  0.00     0.025 A 
ATOM     20  C   UNL     1      10.800  13.549  14.161  1.00  0.00     0.048 A 
ATOM     21  C   UNL     1       9.592  14.195  13.863  1.00  0.00     0.127 A 
ENDROOT
BRANCH  16  22
ATOM     22  O   UNL     1       9.575  13.892   9.338  1.00  0.00    -0.388 OA
ATOM     23  H   UNL     1       8.709  14.178   8.954  1.00  0.00     0.211 HD
ENDBRANCH  16  22
BRANCH  10  24
ATOM     24  O   UNL     1       5.584  16.387  11.384  1.00  0.00    -0.508 OA
ATOM     25  H   UNL     1       4.875  17.097  11.448  1.00  0.00     0.293 HD
ENDBRANCH  10  24
BRANCH   4  26
ATOM     26  N   UNL     1       7.168  19.835   7.402  1.00  0.00    -0.299 NA
ATOM     27  C   UNL     1       6.004  20.169   6.557  1.00  0.00     0.105 C 
ATOM     28  C   UNL     1       8.228  20.845   7.221  1.00  0.00     0.105 C 
ENDBRANCH   4  26
BRANCH   9  29
ATOM     29  O   UNL     1       5.697  18.449   9.529  1.00  0.00    -0.374 OA
ATOM     30  H   UNL     1       4.879  18.374   8.970  1.00  0.00     0.212 HD
ENDBRANCH   9  29
BRANCH   5  31
ATOM     31  O   UNL     1       7.092  17.800   4.948  1.00  0.00    -0.510 OA
ATOM     32  H   UNL     1       6.741  17.201   4.223  1.00  0.00     0.293 HD
ENDBRANCH   5  31
BRANCH  21  33
ATOM     33  O   UNL     1       8.716  14.448  14.920  1.00  0.00    -0.507 OA
ATOM     34  H   UNL     1       8.495  13.761  15.635  1.00  0.00     0.293 HD
ENDBRANCH  21  33
BRANCH   6  35
ATOM     35  C   UNL     1       5.337  15.708   5.844  1.00  0.00     0.255 C 
ATOM     36  N   UNL     1       3.922  15.509   5.936  1.00  0.00    -0.365 N 
ATOM     37  O   UNL     1       5.986  15.126   4.930  1.00  0.00    -0.269 OA
ATOM     38  H   UNL     1       3.431  14.892   5.252  1.00  0.00     0.159 HD
ATOM     39  H   UNL     1       3.349  16.037   6.635  1.00  0.00     0.159 HD
ENDBRANCH   6  35
TORSDOF 7
ENDMDL
MODEL 9
REMARK VINA RESULT:    -7.679      4.552      5.914
REMARK INTER + INTRA:         -10.238
REMARK INTER:                  -9.762
REMARK INTRA:                  -0.475
REMARK UNBOUND:                -0.538
REMARK SMILES CN(C)[C@@H]1C(O)=C(C(N)=O)C(=O)[C@@]2(O)C(O)=C3C(=O)c4c(O)ccc(Cl)c4[C@@H](O)[C@H]3C[C@@H]12
REMARK SMILES IDX 30 1 31 2 32 3 4 4 5 5 7 6 11 7 12 8 13 9 15 10 17 11 18 12
REMARK SMILES IDX 19 13 20 14 27 15 28 16 25 17 26 18 24 19 23 20 21 21 29 22
REMARK SMILES IDX 16 24 2 26 1 27 3 28 14 29 6 31 22 33 8 35 9 36 10 37
REMARK H PARENT 29 23 16 25 14 30 6 32 22 34 9 38 9 39
REMARK Flexibility Score: inf
ROOT
ATOM      1  C   UNL     1      14.894  12.596  17.664  1.00  0.00     0.061 C 
ATOM      2  C   UNL     1      14.849  11.063  17.741  1.00  0.00     0.021 C 
ATOM      3  C   UNL     1      13.406  10.575  17.524  1.00  0.00     0.062 C 
ATOM      4  C   UNL     1      13.334   9.028  17.423  1.00  0.00     0.130 C 
ATOM      5  C   UNL     1      13.536   8.343  18.764  1.00  0.00     0.126 C 
ATOM      6  C   UNL     1      13.290   8.979  19.934  1.00  0.00     0.125 C 
ATOM      7  C   UNL     1      12.752  10.367  19.937  1.00  0.00     0.211 C 
ATOM      8  O   UNL     1      12.483  10.919  21.045  1.00  0.00    -0.290 OA
ATOM      9  C   UNL     1      12.487  11.125  18.648  1.00  0.00     0.190 C 
ATOM     10  C   UNL     1      12.713  12.620  18.894  1.00  0.00     0.140 C 
ATOM     11  C   UNL     1      13.848  13.264  18.534  1.00  0.00     0.047 C 
ATOM     12  C   UNL     1      14.064  14.708  18.837  1.00  0.00     0.197 C 
ATOM     13  O   UNL     1      13.309  15.312  19.654  1.00  0.00    -0.289 OA
ATOM     14  C   UNL     1      15.240  15.413  18.266  1.00  0.00     0.071 A 
ATOM     15  C   UNL     1      16.373  14.649  17.895  1.00  0.00     0.015 A 
ATOM     16  C   UNL     1      16.315  13.130  17.968  1.00  0.00     0.154 C 
ATOM     17  C   UNL     1      17.570  15.310  17.532  1.00  0.00     0.047 A 
ATOM     18  Cl  UNL     1      19.053  14.431  17.177  1.00  0.00    -0.084 Cl
ATOM     19  C   UNL     1      17.615  16.705  17.486  1.00  0.00     0.025 A 
ATOM     20  C   UNL     1      16.483  17.454  17.784  1.00  0.00     0.048 A 
ATOM     21  C   UNL     1      15.282  16.825  18.139  1.00  0.00     0.127 A 
ENDROOT
BRANCH  16  22
ATOM     22  O   UNL     1      16.790  12.684  19.208  1.00  0.00    -0.388 OA
ATOM     23  H   UNL     1      16.136  12.953  19.900  1.00  0.00     0.211 HD
ENDBRANCH  16  22
BRANCH  10  24
ATOM     24  O   UNL     1      11.711  13.325  19.557  1.00  0.00    -0.508 OA
ATOM     25  H   UNL     1      11.081  13.938  19.068  1.00  0.00     0.293 HD
ENDBRANCH  10  24
BRANCH   4  26
ATOM     26  N   UNL     1      12.076   8.632  16.713  1.00  0.00    -0.299 NA
ATOM     27  C   UNL     1      11.702   7.207  16.796  1.00  0.00     0.105 C 
ATOM     28  C   UNL     1      12.089   9.068  15.304  1.00  0.00     0.105 C 
ENDBRANCH   4  26
BRANCH   9  29
ATOM     29  O   UNL     1      11.142  10.918  18.297  1.00  0.00    -0.374 OA
ATOM     30  H   UNL     1      10.624  11.712  18.596  1.00  0.00     0.212 HD
ENDBRANCH   9  29
BRANCH   5  31
ATOM     31  O   UNL     1      13.936   6.998  18.723  1.00  0.00    -0.510 OA
ATOM     32  H   UNL     1      14.309   6.500  19.510  1.00  0.00     0.293 HD
ENDBRANCH   5  31
BRANCH  21  33
ATOM     33  O   UNL     1      14.158  17.633  18.322  1.00  0.00    -0.507 OA
ATOM     34  H   UNL     1      14.186  18.520  18.816  1.00  0.00     0.293 HD
ENDBRANCH  21  33
BRANCH   6  35
ATOM     35  C   UNL     1      13.566   8.332  21.241  1.00  0.00     0.255 C 
ATOM     36  N   UNL     1      14.226   9.043  22.293  1.00  0.00    -0.365 N 
ATOM     37  O   UNL     1      13.175   7.148  21.443  1.00  0.00    -0.269 OA
ATOM     38  H   UNL     1      14.380   8.588  23.221  1.00  0.00     0.159 HD
ATOM     39  H   UNL     1      14.493  10.049  22.179  1.00  0.00     0.159 HD
ENDBRANCH   6  35
TORSDOF 7
ENDMDL
MODEL 10
REMARK VINA RESULT:    -7.563      3.501      7.327
REMARK INTER + INTRA:         -10.090
REMARK INTER:                  -9.568
REMARK INTRA:                  -0.522
REMARK UNBOUND:                -0.538
REMARK SMILES CN(C)[C@@H]1C(O)=C(C(N)=O)C(=O)[C@@]2(O)C(O)=C3C(=O)c4c(O)ccc(Cl)c4[C@@H](O)[C@H]3C[C@@H]12
REMARK SMILES IDX 30 1 31 2 32 3 4 4 5 5 7 6 11 7 12 8 13 9 15 10 17 11 18 12
REMARK SMILES IDX 19 13 20 14 27 15 28 16 25 17 26 18 24 19 23 20 21 21 29 22
REMARK SMILES IDX 16 24 2 26 1 27 3 28 14 29 6 31 22 33 8 35 9 36 10 37
REMARK H PARENT 29 23 16 25 14 30 6 32 22 34 9 38 9 39
REMARK Flexibility Score: inf
ROOT
ATOM      1  C   UNL     1      12.451  12.555  15.330  1.00  0.00     0.061 C 
ATOM      2  C   UNL     1      12.774  13.103  13.931  1.00  0.00     0.021 C 
ATOM      3  C   UNL     1      12.578  14.629  13.915  1.00  0.00     0.062 C 
ATOM      4  C   UNL     1      13.054  15.253  12.577  1.00  0.00     0.130 C 
ATOM      5  C   UNL     1      12.109  14.957  11.424  1.00  0.00     0.126 C 
ATOM      6  C   UNL     1      10.805  14.655  11.630  1.00  0.00     0.125 C 
ATOM      7  C   UNL     1      10.240  14.662  13.007  1.00  0.00     0.211 C 
ATOM      8  O   UNL     1       9.005  14.426  13.165  1.00  0.00    -0.290 OA
ATOM      9  C   UNL     1      11.096  14.976  14.221  1.00  0.00     0.190 C 
ATOM     10  C   UNL     1      10.560  14.193  15.424  1.00  0.00     0.140 C 
ATOM     11  C   UNL     1      11.118  13.042  15.864  1.00  0.00     0.047 C 
ATOM     12  C   UNL     1      10.542  12.271  17.003  1.00  0.00     0.197 C 
ATOM     13  O   UNL     1       9.379  12.531  17.429  1.00  0.00    -0.289 OA
ATOM     14  C   UNL     1      11.288  11.116  17.565  1.00  0.00     0.071 A 
ATOM     15  C   UNL     1      12.231  10.454  16.741  1.00  0.00     0.015 A 
ATOM     16  C   UNL     1      12.548  11.010  15.361  1.00  0.00     0.154 C 
ATOM     17  C   UNL     1      12.811   9.242  17.183  1.00  0.00     0.047 A 
ATOM     18  Cl  UNL     1      13.895   8.298  16.166  1.00  0.00    -0.084 Cl
ATOM     19  C   UNL     1      12.497   8.733  18.445  1.00  0.00     0.025 A 
ATOM     20  C   UNL     1      11.624   9.418  19.281  1.00  0.00     0.048 A 
ATOM     21  C   UNL     1      11.041  10.625  18.872  1.00  0.00     0.127 A 
ENDROOT
BRANCH  16  22
ATOM     22  O   UNL     1      11.728  10.412  14.394  1.00  0.00    -0.388 OA
ATOM     23  H   UNL     1      12.313  10.004  13.708  1.00  0.00     0.211 HD
ENDBRANCH  16  22
BRANCH  10  24
ATOM     24  O   UNL     1       9.418  14.682  16.057  1.00  0.00    -0.508 OA
ATOM     25  H   UNL     1       8.497  14.366  15.807  1.00  0.00     0.293 HD
ENDBRANCH  10  24
BRANCH   4  26
ATOM     26  N   UNL     1      13.342  16.709  12.778  1.00  0.00    -0.299 NA
ATOM     27  C   UNL     1      12.779  17.630  11.771  1.00  0.00     0.105 C 
ATOM     28  C   UNL     1      14.787  16.959  12.938  1.00  0.00     0.105 C 
ENDBRANCH   4  26
BRANCH   9  29
ATOM     29  O   UNL     1      10.981  16.352  14.483  1.00  0.00    -0.374 OA
ATOM     30  H   UNL     1      11.344  16.843  13.700  1.00  0.00     0.212 HD
ENDBRANCH   9  29
BRANCH   5  31
ATOM     31  O   UNL     1      12.648  15.070  10.132  1.00  0.00    -0.510 OA
ATOM     32  H   UNL     1      12.719  14.305   9.486  1.00  0.00     0.293 HD
ENDBRANCH   5  31
BRANCH  21  33
ATOM     33  O   UNL     1      10.259  11.314  19.801  1.00  0.00    -0.507 OA
ATOM     34  H   UNL     1      10.637  11.726  20.649  1.00  0.00     0.293 HD
ENDBRANCH  21  33
BRANCH   6  35
ATOM     35  C   UNL     1       9.908  14.289  10.506  1.00  0.00     0.255 C 
ATOM     36  N   UNL     1       8.589  14.836  10.404  1.00  0.00    -0.365 N 
ATOM     37  O   UNL     1      10.328  13.513   9.602  1.00  0.00    -0.269 OA
ATOM     38  H   UNL     1       7.982  14.600   9.588  1.00  0.00     0.159 HD
ATOM     39  H   UNL     1       8.242  15.539  11.098  1.00  0.00     0.159 HD
ENDBRANCH   6  35
TORSDOF 7
ENDMDL
MODEL 11
REMARK VINA RESULT:    -7.504      4.885      7.063
REMARK INTER + INTRA:         -10.017
REMARK INTER:                  -9.473
REMARK INTRA:                  -0.543
REMARK UNBOUND:                -0.538
REMARK SMILES CN(C)[C@@H]1C(O)=C(C(N)=O)C(=O)[C@@]2(O)C(O)=C3C(=O)c4c(O)ccc(Cl)c4[C@@H](O)[C@H]3C[C@@H]12
REMARK SMILES IDX 30 1 31 2 32 3 4 4 5 5 7 6 11 7 12 8 13 9 15 10 17 11 18 12
REMARK SMILES IDX 19 13 20 14 27 15 28 16 25 17 26 18 24 19 23 20 21 21 29 22
REMARK SMILES IDX 16 24 2 26 1 27 3 28 14 29 6 31 22 33 8 35 9 36 10 37
REMARK H PARENT 29 23 16 25 14 30 6 32 22 34 9 38 9 39
REMARK Flexibility Score: inf
ROOT
ATOM      1  C   UNL     1      14.979  11.451  18.237  1.00  0.00     0.061 C 
ATOM      2  C   UNL     1      16.170  12.202  17.622  1.00  0.00     0.021 C 
ATOM      3  C   UNL     1      17.202  12.522  18.718  1.00  0.00     0.062 C 
ATOM      4  C   UNL     1      18.500  13.128  18.121  1.00  0.00     0.130 C 
ATOM      5  C   UNL     1      18.315  14.562  17.651  1.00  0.00     0.126 C 
ATOM      6  C   UNL     1      17.337  15.355  18.151  1.00  0.00     0.125 C 
ATOM      7  C   UNL     1      16.442  14.857  19.230  1.00  0.00     0.211 C 
ATOM      8  O   UNL     1      15.570  15.638  19.715  1.00  0.00    -0.290 OA
ATOM      9  C   UNL     1      16.569  13.450  19.788  1.00  0.00     0.190 C 
ATOM     10  C   UNL     1      15.184  12.961  20.224  1.00  0.00     0.140 C 
ATOM     11  C   UNL     1      14.423  12.132  19.472  1.00  0.00     0.047 C 
ATOM     12  C   UNL     1      13.055  11.717  19.896  1.00  0.00     0.197 C 
ATOM     13  O   UNL     1      12.465  12.320  20.840  1.00  0.00    -0.289 OA
ATOM     14  C   UNL     1      12.333  10.667  19.131  1.00  0.00     0.071 A 
ATOM     15  C   UNL     1      12.690  10.448  17.779  1.00  0.00     0.015 A 
ATOM     16  C   UNL     1      13.877  11.192  17.183  1.00  0.00     0.154 C 
ATOM     17  C   UNL     1      11.895   9.595  16.978  1.00  0.00     0.047 A 
ATOM     18  Cl  UNL     1      12.203   9.370  15.260  1.00  0.00    -0.084 Cl
ATOM     19  C   UNL     1      10.799   8.933  17.534  1.00  0.00     0.025 A 
ATOM     20  C   UNL     1      10.488   9.094  18.879  1.00  0.00     0.048 A 
ATOM     21  C   UNL     1      11.264   9.926  19.697  1.00  0.00     0.127 A 
ENDROOT
BRANCH  16  22
ATOM     22  O   UNL     1      13.449  12.376  16.568  1.00  0.00    -0.388 OA
ATOM     23  H   UNL     1      12.985  12.924  17.249  1.00  0.00     0.211 HD
ENDBRANCH  16  22
BRANCH  10  24
ATOM     24  O   UNL     1      14.682  13.435  21.435  1.00  0.00    -0.508 OA
ATOM     25  H   UNL     1      14.534  14.416  21.600  1.00  0.00     0.293 HD
ENDBRANCH  10  24
BRANCH   4  26
ATOM     26  N   UNL     1      19.630  12.939  19.085  1.00  0.00    -0.299 NA
ATOM     27  C   UNL     1      20.312  14.166  19.540  1.00  0.00     0.105 C 
ATOM     28  C   UNL     1      20.620  11.971  18.576  1.00  0.00     0.105 C 
ENDBRANCH   4  26
BRANCH   9  29
ATOM     29  O   UNL     1      17.407  13.509  20.914  1.00  0.00    -0.374 OA
ATOM     30  H   UNL     1      17.492  12.589  21.279  1.00  0.00     0.212 HD
ENDBRANCH   9  29
BRANCH   5  31
ATOM     31  O   UNL     1      19.246  15.035  16.714  1.00  0.00    -0.510 OA
ATOM     32  H   UNL     1      19.437  14.586  15.836  1.00  0.00     0.293 HD
ENDBRANCH   5  31
BRANCH  21  33
ATOM     33  O   UNL     1      10.960   9.960  21.059  1.00  0.00    -0.507 OA
ATOM     34  H   UNL     1      11.404  10.600  21.712  1.00  0.00     0.293 HD
ENDBRANCH  21  33
BRANCH   6  35
ATOM     35  C   UNL     1      17.111  16.727  17.630  1.00  0.00     0.255 C 
ATOM     36  N   UNL     1      17.172  17.865  18.496  1.00  0.00    -0.365 N 
ATOM     37  O   UNL     1      16.902  16.896  16.396  1.00  0.00    -0.269 OA
ATOM     38  H   UNL     1      17.049  18.828  18.109  1.00  0.00     0.159 HD
ATOM     39  H   UNL     1      17.418  17.760  19.507  1.00  0.00     0.159 HD
ENDBRANCH   6  35
TORSDOF 7
ENDMDL
MODEL 12
REMARK VINA RESULT:    -7.436      3.687      7.231
REMARK INTER + INTRA:          -9.930
REMARK INTER:                  -9.360
REMARK INTRA:                  -0.571
REMARK UNBOUND:                -0.538
REMARK SMILES CN(C)[C@@H]1C(O)=C(C(N)=O)C(=O)[C@@]2(O)C(O)=C3C(=O)c4c(O)ccc(Cl)c4[C@@H](O)[C@H]3C[C@@H]12
REMARK SMILES IDX 30 1 31 2 32 3 4 4 5 5 7 6 11 7 12 8 13 9 15 10 17 11 18 12
REMARK SMILES IDX 19 13 20 14 27 15 28 16 25 17 26 18 24 19 23 20 21 21 29 22
REMARK SMILES IDX 16 24 2 26 1 27 3 28 14 29 6 31 22 33 8 35 9 36 10 37
REMARK H PARENT 29 23 16 25 14 30 6 32 22 34 9 38 9 39
REMARK Flexibility Score: inf
ROOT
ATOM      1  C   UNL     1      12.102  12.051  17.246  1.00  0.00     0.061 C 
ATOM      2  C   UNL     1      12.423  13.539  17.038  1.00  0.00     0.021 C 
ATOM      3  C   UNL     1      11.349  14.180  16.142  1.00  0.00     0.062 C 
ATOM      4  C   UNL     1      11.532  15.718  16.041  1.00  0.00     0.130 C 
ATOM      5  C   UNL     1      12.718  16.111  15.176  1.00  0.00     0.126 C 
ATOM      6  C   UNL     1      13.212  15.284  14.224  1.00  0.00     0.125 C 
ATOM      7  C   UNL     1      12.560  13.972  13.956  1.00  0.00     0.211 C 
ATOM      8  O   UNL     1      13.012  13.241  13.024  1.00  0.00    -0.290 OA
ATOM      9  C   UNL     1      11.351  13.504  14.745  1.00  0.00     0.190 C 
ATOM     10  C   UNL     1      11.384  11.976  14.848  1.00  0.00     0.140 C 
ATOM     11  C   UNL     1      11.819  11.319  15.949  1.00  0.00     0.047 C 
ATOM     12  C   UNL     1      11.894   9.830  16.000  1.00  0.00     0.197 C 
ATOM     13  O   UNL     1      11.794   9.147  14.939  1.00  0.00    -0.289 OA
ATOM     14  C   UNL     1      12.203   9.152  17.285  1.00  0.00     0.071 A 
ATOM     15  C   UNL     1      12.905   9.874  18.280  1.00  0.00     0.015 A 
ATOM     16  C   UNL     1      13.210  11.349  18.067  1.00  0.00     0.154 C 
ATOM     17  C   UNL     1      13.377   9.196  19.428  1.00  0.00     0.047 A 
ATOM     18  Cl  UNL     1      14.361   9.997  20.648  1.00  0.00    -0.084 Cl
ATOM     19  C   UNL     1      13.105   7.838  19.603  1.00  0.00     0.025 A 
ATOM     20  C   UNL     1      12.357   7.144  18.659  1.00  0.00     0.048 A 
ATOM     21  C   UNL     1      11.870   7.793  17.516  1.00  0.00     0.127 A 
ENDROOT
BRANCH  16  22
ATOM     22  O   UNL     1      14.475  11.505  17.484  1.00  0.00    -0.388 OA
ATOM     23  H   UNL     1      14.680  12.472  17.453  1.00  0.00     0.211 HD
ENDBRANCH  16  22
BRANCH  10  24
ATOM     24  O   UNL     1      10.985  11.244  13.731  1.00  0.00    -0.508 OA
ATOM     25  H   UNL     1      10.310  11.601  13.077  1.00  0.00     0.293 HD
ENDBRANCH  10  24
BRANCH   4  26
ATOM     26  N   UNL     1      10.237  16.350  15.633  1.00  0.00    -0.299 NA
ATOM     27  C   UNL     1      10.304  17.304  14.509  1.00  0.00     0.105 C 
ATOM     28  C   UNL     1       9.552  16.971  16.782  1.00  0.00     0.105 C 
ENDBRANCH   4  26
BRANCH   9  29
ATOM     29  O   UNL     1      10.200  13.888  14.036  1.00  0.00    -0.374 OA
ATOM     30  H   UNL     1      10.385  13.771  13.067  1.00  0.00     0.212 HD
ENDBRANCH   9  29
BRANCH   5  31
ATOM     31  O   UNL     1      13.238  17.399  15.379  1.00  0.00    -0.510 OA
ATOM     32  H   UNL     1      14.090  17.588  15.875  1.00  0.00     0.293 HD
ENDBRANCH   5  31
BRANCH  21  33
ATOM     33  O   UNL     1      11.038   7.064  16.663  1.00  0.00    -0.507 OA
ATOM     34  H   UNL     1      10.414   6.332  16.989  1.00  0.00     0.293 HD
ENDBRANCH  21  33
BRANCH   6  35
ATOM     35  C   UNL     1      14.420  15.640  13.438  1.00  0.00     0.255 C 
ATOM     36  N   UNL     1      14.367  15.754  12.012  1.00  0.00    -0.365 N 
ATOM     37  O   UNL     1      15.502  15.886  14.040  1.00  0.00    -0.269 OA
ATOM     38  H   UNL     1      15.215  16.042  11.475  1.00  0.00     0.159 HD
ATOM     39  H   UNL     1      13.466  15.629  11.495  1.00  0.00     0.159 HD
ENDBRANCH   6  35
TORSDOF 7
ENDMDL
MODEL 13
REMARK VINA RESULT:    -7.435      3.785      7.206
REMARK INTER + INTRA:          -9.928
REMARK INTER:                  -9.356
REMARK INTRA:                  -0.572
REMARK UNBOUND:                -0.538
REMARK SMILES CN(C)[C@@H]1C(O)=C(C(N)=O)C(=O)[C@@]2(O)C(O)=C3C(=O)c4c(O)ccc(Cl)c4[C@@H](O)[C@H]3C[C@@H]12
REMARK SMILES IDX 30 1 31 2 32 3 4 4 5 5 7 6 11 7 12 8 13 9 15 10 17 11 18 12
REMARK SMILES IDX 19 13 20 14 27 15 28 16 25 17 26 18 24 19 23 20 21 21 29 22
REMARK SMILES IDX 16 24 2 26 1 27 3 28 14 29 6 31 22 33 8 35 9 36 10 37
REMARK H PARENT 29 23 16 25 14 30 6 32 22 34 9 38 9 39
REMARK Flexibility Score: inf
ROOT
ATOM      1  C   UNL     1       9.534  13.636  15.003  1.00  0.00     0.061 C 
ATOM      2  C   UNL     1       9.804  14.797  14.033  1.00  0.00     0.021 C 
ATOM      3  C   UNL     1       9.945  14.253  12.601  1.00  0.00     0.062 C 
ATOM      4  C   UNL     1      10.049  15.400  11.561  1.00  0.00     0.130 C 
ATOM      5  C   UNL     1      11.394  16.105  11.599  1.00  0.00     0.126 C 
ATOM      6  C   UNL     1      12.504  15.499  12.084  1.00  0.00     0.125 C 
ATOM      7  C   UNL     1      12.447  14.085  12.546  1.00  0.00     0.211 C 
ATOM      8  O   UNL     1      13.512  13.526  12.946  1.00  0.00    -0.290 OA
ATOM      9  C   UNL     1      11.156  13.286  12.518  1.00  0.00     0.190 C 
ATOM     10  C   UNL     1      11.168  12.281  13.674  1.00  0.00     0.140 C 
ATOM     11  C   UNL     1      10.511  12.488  14.839  1.00  0.00     0.047 C 
ATOM     12  C   UNL     1      10.586  11.518  15.969  1.00  0.00     0.197 C 
ATOM     13  O   UNL     1      11.459  10.602  15.971  1.00  0.00    -0.289 OA
ATOM     14  C   UNL     1       9.707  11.697  17.154  1.00  0.00     0.071 A 
ATOM     15  C   UNL     1       9.210  12.992  17.439  1.00  0.00     0.015 A 
ATOM     16  C   UNL     1       9.477  14.132  16.467  1.00  0.00     0.154 C 
ATOM     17  C   UNL     1       8.535  13.225  18.659  1.00  0.00     0.047 A 
ATOM     18  Cl  UNL     1       7.997  14.831  19.139  1.00  0.00    -0.084 Cl
ATOM     19  C   UNL     1       8.312  12.172  19.550  1.00  0.00     0.025 A 
ATOM     20  C   UNL     1       8.739  10.887  19.239  1.00  0.00     0.048 A 
ATOM     21  C   UNL     1       9.404  10.627  18.033  1.00  0.00     0.127 A 
ENDROOT
BRANCH  16  22
ATOM     22  O   UNL     1      10.641  14.822  16.834  1.00  0.00    -0.388 OA
ATOM     23  H   UNL     1      11.042  14.352  17.607  1.00  0.00     0.211 HD
ENDBRANCH  16  22
BRANCH  10  24
ATOM     24  O   UNL     1      11.930  11.124  13.518  1.00  0.00    -0.508 OA
ATOM     25  H   UNL     1      11.560  10.302  13.072  1.00  0.00     0.293 HD
ENDBRANCH  10  24
BRANCH   4  26
ATOM     26  N   UNL     1       9.661  14.886  10.209  1.00  0.00    -0.299 NA
ATOM     27  C   UNL     1      10.591  15.192   9.104  1.00  0.00     0.105 C 
ATOM     28  C   UNL     1       8.293  15.298   9.844  1.00  0.00     0.105 C 
ENDBRANCH   4  26
BRANCH   9  29
ATOM     29  O   UNL     1      11.113  12.582  11.302  1.00  0.00    -0.374 OA
ATOM     30  H   UNL     1      10.177  12.280  11.158  1.00  0.00     0.212 HD
ENDBRANCH   9  29
BRANCH   5  31
ATOM     31  O   UNL     1      11.436  17.398  11.052  1.00  0.00    -0.510 OA
ATOM     32  H   UNL     1      12.283  17.866  10.784  1.00  0.00     0.293 HD
ENDBRANCH   5  31
BRANCH  21  33
ATOM     33  O   UNL     1       9.711   9.297  17.738  1.00  0.00    -0.507 OA
ATOM     34  H   UNL     1       9.110   8.699  17.179  1.00  0.00     0.293 HD
ENDBRANCH  21  33
BRANCH   6  35
ATOM     35  C   UNL     1      13.797  16.220  12.192  1.00  0.00     0.255 C 
ATOM     36  N   UNL     1      14.456  16.369  13.454  1.00  0.00    -0.365 N 
ATOM     37  O   UNL     1      14.345  16.674  11.149  1.00  0.00    -0.269 OA
ATOM     38  H   UNL     1      15.384  16.846  13.511  1.00  0.00     0.159 HD
ATOM     39  H   UNL     1      14.062  15.938  14.322  1.00  0.00     0.159 HD
ENDBRANCH   6  35
TORSDOF 7
ENDMDL
MODEL 14
REMARK VINA RESULT:    -7.396      3.818      8.001
REMARK INTER + INTRA:          -9.880
REMARK INTER:                  -9.360
REMARK INTRA:                  -0.519
REMARK UNBOUND:                -0.538
REMARK SMILES CN(C)[C@@H]1C(O)=C(C(N)=O)C(=O)[C@@]2(O)C(O)=C3C(=O)c4c(O)ccc(Cl)c4[C@@H](O)[C@H]3C[C@@H]12
REMARK SMILES IDX 30 1 31 2 32 3 4 4 5 5 7 6 11 7 12 8 13 9 15 10 17 11 18 12
REMARK SMILES IDX 19 13 20 14 27 15 28 16 25 17 26 18 24 19 23 20 21 21 29 22
REMARK SMILES IDX 16 24 2 26 1 27 3 28 14 29 6 31 22 33 8 35 9 36 10 37
REMARK H PARENT 29 23 16 25 14 30 6 32 22 34 9 38 9 39
REMARK Flexibility Score: inf
ROOT
ATOM      1  C   UNL     1      14.915  13.386  19.060  1.00  0.00     0.061 C 
ATOM      2  C   UNL     1      14.434  13.080  17.633  1.00  0.00     0.021 C 
ATOM      3  C   UNL     1      12.896  13.070  17.595  1.00  0.00     0.062 C 
ATOM      4  C   UNL     1      12.361  12.935  16.145  1.00  0.00     0.130 C 
ATOM      5  C   UNL     1      12.545  11.536  15.580  1.00  0.00     0.126 C 
ATOM      6  C   UNL     1      12.667  10.453  16.384  1.00  0.00     0.125 C 
ATOM      7  C   UNL     1      12.565  10.598  17.862  1.00  0.00     0.211 C 
ATOM      8  O   UNL     1      12.632   9.561  18.587  1.00  0.00    -0.290 OA
ATOM      9  C   UNL     1      12.351  11.950  18.520  1.00  0.00     0.190 C 
ATOM     10  C   UNL     1      13.037  11.952  19.890  1.00  0.00     0.140 C 
ATOM     11  C   UNL     1      14.246  12.518  20.109  1.00  0.00     0.047 C 
ATOM     12  C   UNL     1      14.916  12.456  21.440  1.00  0.00     0.197 C 
ATOM     13  O   UNL     1      14.498  11.662  22.332  1.00  0.00    -0.289 OA
ATOM     14  C   UNL     1      16.152  13.244  21.680  1.00  0.00     0.071 A 
ATOM     15  C   UNL     1      16.946  13.615  20.568  1.00  0.00     0.015 A 
ATOM     16  C   UNL     1      16.457  13.314  19.159  1.00  0.00     0.154 C 
ATOM     17  C   UNL     1      18.218  14.195  20.783  1.00  0.00     0.047 A 
ATOM     18  Cl  UNL     1      19.312  14.569  19.456  1.00  0.00    -0.084 Cl
ATOM     19  C   UNL     1      18.662  14.450  22.083  1.00  0.00     0.025 A 
ATOM     20  C   UNL     1      17.854  14.148  23.173  1.00  0.00     0.048 A 
ATOM     21  C   UNL     1      16.587  13.581  22.987  1.00  0.00     0.127 A 
ENDROOT
BRANCH  16  22
ATOM     22  O   UNL     1      16.955  12.078  18.725  1.00  0.00    -0.388 OA
ATOM     23  H   UNL     1      16.451  11.366  19.191  1.00  0.00     0.211 HD
ENDBRANCH  16  22
BRANCH  10  24
ATOM     24  O   UNL     1      12.391  11.298  20.938  1.00  0.00    -0.508 OA
ATOM     25  H   UNL     1      12.146  11.774  21.789  1.00  0.00     0.293 HD
ENDBRANCH  10  24
BRANCH   4  26
ATOM     26  N   UNL     1      10.954  13.444  16.082  1.00  0.00    -0.299 NA
ATOM     27  C   UNL     1      10.267  13.303  14.783  1.00  0.00     0.105 C 
ATOM     28  C   UNL     1      10.860  14.838  16.554  1.00  0.00     0.105 C 
ENDBRANCH   4  26
BRANCH   9  29
ATOM     29  O   UNL     1      10.968  12.124  18.702  1.00  0.00    -0.374 OA
ATOM     30  H   UNL     1      10.650  12.776  18.024  1.00  0.00     0.212 HD
ENDBRANCH   9  29
BRANCH   5  31
ATOM     31  O   UNL     1      12.524  11.421  14.181  1.00  0.00    -0.510 OA
ATOM     32  H   UNL     1      11.866  10.857  13.675  1.00  0.00     0.293 HD
ENDBRANCH   5  31
BRANCH  21  33
ATOM     33  O   UNL     1      15.786  13.402  24.118  1.00  0.00    -0.507 OA
ATOM     34  H   UNL     1      15.967  12.689  24.819  1.00  0.00     0.293 HD
ENDBRANCH  21  33
BRANCH   6  35
ATOM     35  C   UNL     1      12.927   9.102  15.829  1.00  0.00     0.255 C 
ATOM     36  N   UNL     1      13.981   8.281  16.344  1.00  0.00    -0.365 N 
ATOM     37  O   UNL     1      12.181   8.651  14.915  1.00  0.00    -0.269 OA
ATOM     38  H   UNL     1      14.129   7.317  15.970  1.00  0.00     0.159 HD
ATOM     39  H   UNL     1      14.566   8.599  17.152  1.00  0.00     0.159 HD
ENDBRANCH   6  35
TORSDOF 7
ENDMDL
MODEL 15
REMARK VINA RESULT:    -7.252      2.578      4.881
REMARK INTER + INTRA:          -9.698
REMARK INTER:                  -9.436
REMARK INTRA:                  -0.262
REMARK UNBOUND:                -0.538
REMARK SMILES CN(C)[C@@H]1C(O)=C(C(N)=O)C(=O)[C@@]2(O)C(O)=C3C(=O)c4c(O)ccc(Cl)c4[C@@H](O)[C@H]3C[C@@H]12
REMARK SMILES IDX 30 1 31 2 32 3 4 4 5 5 7 6 11 7 12 8 13 9 15 10 17 11 18 12
REMARK SMILES IDX 19 13 20 14 27 15 28 16 25 17 26 18 24 19 23 20 21 21 29 22
REMARK SMILES IDX 16 24 2 26 1 27 3 28 14 29 6 31 22 33 8 35 9 36 10 37
REMARK H PARENT 29 23 16 25 14 30 6 32 22 34 9 38 9 39
REMARK Flexibility Score: inf
ROOT
ATOM      1  C   UNL     1      12.378  13.444  17.193  1.00  0.00     0.061 C 
ATOM      2  C   UNL     1      12.569  13.474  18.717  1.00  0.00     0.021 C 
ATOM      3  C   UNL     1      14.000  13.031  19.069  1.00  0.00     0.062 C 
ATOM      4  C   UNL     1      14.299  13.207  20.582  1.00  0.00     0.130 C 
ATOM      5  C   UNL     1      13.593  12.172  21.442  1.00  0.00     0.126 C 
ATOM      6  C   UNL     1      13.201  10.977  20.942  1.00  0.00     0.125 C 
ATOM      7  C   UNL     1      13.505  10.616  19.530  1.00  0.00     0.211 C 
ATOM      8  O   UNL     1      13.171   9.470  19.103  1.00  0.00    -0.290 OA
ATOM      9  C   UNL     1      14.233  11.570  18.600  1.00  0.00     0.190 C 
ATOM     10  C   UNL     1      13.740  11.342  17.167  1.00  0.00     0.140 C 
ATOM     11  C   UNL     1      12.824  12.137  16.566  1.00  0.00     0.047 C 
ATOM     12  C   UNL     1      12.320  11.859  15.191  1.00  0.00     0.197 C 
ATOM     13  O   UNL     1      12.540  10.740  14.641  1.00  0.00    -0.289 OA
ATOM     14  C   UNL     1      11.456  12.855  14.506  1.00  0.00     0.071 A 
ATOM     15  C   UNL     1      10.719  13.769  15.298  1.00  0.00     0.015 A 
ATOM     16  C   UNL     1      10.922  13.796  16.805  1.00  0.00     0.154 C 
ATOM     17  C   UNL     1       9.748  14.595  14.684  1.00  0.00     0.047 A 
ATOM     18  Cl  UNL     1       8.708  15.666  15.616  1.00  0.00    -0.084 Cl
ATOM     19  C   UNL     1       9.560  14.547  13.301  1.00  0.00     0.025 A 
ATOM     20  C   UNL     1      10.331  13.700  12.516  1.00  0.00     0.048 A 
ATOM     21  C   UNL     1      11.305  12.877  13.096  1.00  0.00     0.127 A 
ENDROOT
BRANCH  16  22
ATOM     22  O   UNL     1       9.993  12.958  17.437  1.00  0.00    -0.388 OA
ATOM     23  H   UNL     1      10.111  13.052  18.414  1.00  0.00     0.211 HD
ENDBRANCH  16  22
BRANCH  10  24
ATOM     24  O   UNL     1      14.236  10.236  16.480  1.00  0.00    -0.508 OA
ATOM     25  H   UNL     1      13.862   9.952  15.591  1.00  0.00     0.293 HD
ENDBRANCH  10  24
BRANCH   4  26
ATOM     26  N   UNL     1      15.779  13.279  20.795  1.00  0.00    -0.299 NA
ATOM     27  C   UNL     1      16.228  13.513  22.181  1.00  0.00     0.105 C 
ATOM     28  C   UNL     1      16.411  14.256  19.888  1.00  0.00     0.105 C 
ENDBRANCH   4  26
BRANCH   9  29
ATOM     29  O   UNL     1      15.604  11.269  18.664  1.00  0.00    -0.374 OA
ATOM     30  H   UNL     1      15.980  11.726  19.462  1.00  0.00     0.212 HD
ENDBRANCH   9  29
BRANCH   5  31
ATOM     31  O   UNL     1      13.422  12.500  22.796  1.00  0.00    -0.510 OA
ATOM     32  H   UNL     1      13.831  13.306  23.234  1.00  0.00     0.293 HD
ENDBRANCH   5  31
BRANCH  21  33
ATOM     33  O   UNL     1      12.116  12.129  12.239  1.00  0.00    -0.507 OA
ATOM     34  H   UNL     1      13.115  12.011  12.382  1.00  0.00     0.293 HD
ENDBRANCH  21  33
BRANCH   6  35
ATOM     35  C   UNL     1      12.441  10.003  21.766  1.00  0.00     0.255 C 
ATOM     36  N   UNL     1      13.084   9.249  22.798  1.00  0.00    -0.365 N 
ATOM     37  O   UNL     1      11.199   9.868  21.581  1.00  0.00    -0.269 OA
ATOM     38  H   UNL     1      12.531   8.596  23.396  1.00  0.00     0.159 HD
ATOM     39  H   UNL     1      14.096   9.396  23.023  1.00  0.00     0.159 HD
ENDBRANCH   6  35
TORSDOF 7
ENDMDL
