MODEL 1
REMARK VINA RESULT:    -4.453      0.000      0.000
REMARK INTER + INTRA:          -5.607
REMARK INTER:                  -5.495
REMARK INTRA:                  -0.112
REMARK UNBOUND:                -0.112
REMARK SMILES C[N+](C)(C)CCOC(N)=O
REMARK SMILES IDX 6 1 5 2 2 3 1 4 3 5 4 6 7 7 8 8 9 9 10 10
REMARK H PARENT 9 11 9 12
REMARK Flexibility Score: inf
ROOT
ATOM      1  C   UNL     1      16.371  31.109   6.650  1.00  0.00     0.296 C 
ENDROOT
BRANCH   1   2
ATOM      2  C   UNL     1      15.701  31.769   7.876  1.00  0.00     0.305 C 
BRANCH   2   3
ATOM      3  N   UNL     1      16.487  32.866   8.519  1.00  0.00    -0.328 N 
ATOM      4  C   UNL     1      17.889  32.763   8.047  1.00  0.00     0.334 C 
ATOM      5  C   UNL     1      15.964  34.201   8.136  1.00  0.00     0.334 C 
ATOM      6  C   UNL     1      16.482  32.735   9.997  1.00  0.00     0.334 C 
ENDBRANCH   2   3
ENDBRANCH   1   2
BRANCH   1   7
ATOM      7  O   UNL     1      15.823  29.810   6.431  1.00  0.00    -0.444 OA
BRANCH   7   8
ATOM      8  C   UNL     1      16.429  28.632   6.879  1.00  0.00     0.404 C 
ATOM      9  N   UNL     1      17.269  27.895   5.995  1.00  0.00    -0.335 N 
ATOM     10  O   UNL     1      16.235  28.212   8.052  1.00  0.00    -0.225 OA
ATOM     11  H   UNL     1      17.432  28.235   5.022  1.00  0.00     0.163 HD
ATOM     12  H   UNL     1      17.727  27.011   6.312  1.00  0.00     0.163 HD
ENDBRANCH   7   8
ENDBRANCH   1   7
TORSDOF 4
ENDMDL
MODEL 2
REMARK VINA RESULT:    -4.407      0.136      1.295
REMARK INTER + INTRA:          -5.550
REMARK INTER:                  -5.454
REMARK INTRA:                  -0.095
REMARK UNBOUND:                -0.112
REMARK SMILES C[N+](C)(C)CCOC(N)=O
REMARK SMILES IDX 6 1 5 2 2 3 1 4 3 5 4 6 7 7 8 8 9 9 10 10
REMARK H PARENT 9 11 9 12
REMARK Flexibility Score: inf
ROOT
ATOM      1  C   UNL     1      16.276  31.085   6.629  1.00  0.00     0.296 C 
ENDROOT
BRANCH   1   2
ATOM      2  C   UNL     1      15.760  31.658   7.967  1.00  0.00     0.305 C 
BRANCH   2   3
ATOM      3  N   UNL     1      16.600  32.742   8.565  1.00  0.00    -0.328 N 
ATOM      4  C   UNL     1      16.091  34.042   8.064  1.00  0.00     0.334 C 
ATOM      5  C   UNL     1      16.505  32.744  10.045  1.00  0.00     0.334 C 
ATOM      6  C   UNL     1      18.019  32.608   8.157  1.00  0.00     0.334 C 
ENDBRANCH   2   3
ENDBRANCH   1   2
BRANCH   1   7
ATOM      7  O   UNL     1      15.758  29.772   6.425  1.00  0.00    -0.444 OA
BRANCH   7   8
ATOM      8  C   UNL     1      16.381  28.614   6.904  1.00  0.00     0.404 C 
ATOM      9  N   UNL     1      17.257  27.884   6.050  1.00  0.00    -0.335 N 
ATOM     10  O   UNL     1      16.171  28.207   8.079  1.00  0.00    -0.225 OA
ATOM     11  H   UNL     1      17.434  28.213   5.076  1.00  0.00     0.163 HD
ATOM     12  H   UNL     1      17.729  27.016   6.390  1.00  0.00     0.163 HD
ENDBRANCH   7   8
ENDBRANCH   1   7
TORSDOF 4
ENDMDL
MODEL 3
REMARK VINA RESULT:    -4.317      2.183      4.508
REMARK INTER + INTRA:          -5.439
REMARK INTER:                  -5.352
REMARK INTRA:                  -0.087
REMARK UNBOUND:                -0.112
REMARK SMILES C[N+](C)(C)CCOC(N)=O
REMARK SMILES IDX 6 1 5 2 2 3 1 4 3 5 4 6 7 7 8 8 9 9 10 10
REMARK H PARENT 9 11 9 12
REMARK Flexibility Score: inf
ROOT
ATOM      1  C   UNL     1      15.057  31.035   7.980  1.00  0.00     0.296 C 
ENDROOT
BRANCH   1   2
ATOM      2  C   UNL     1      15.976  30.334   6.955  1.00  0.00     0.305 C 
BRANCH   2   3
ATOM      3  N   UNL     1      15.746  28.865   6.792  1.00  0.00    -0.328 N 
ATOM      4  C   UNL     1      15.310  28.322   8.102  1.00  0.00     0.334 C 
ATOM      5  C   UNL     1      14.680  28.593   5.797  1.00  0.00     0.334 C 
ATOM      6  C   UNL     1      16.992  28.168   6.390  1.00  0.00     0.334 C 
ENDBRANCH   2   3
ENDBRANCH   1   2
BRANCH   1   7
ATOM      7  O   UNL     1      15.840  31.626   9.016  1.00  0.00    -0.444 OA
BRANCH   7   8
ATOM      8  C   UNL     1      17.112  32.169   8.808  1.00  0.00     0.404 C 
ATOM      9  N   UNL     1      18.256  31.494   9.322  1.00  0.00    -0.335 N 
ATOM     10  O   UNL     1      17.257  33.251   8.176  1.00  0.00    -0.225 OA
ATOM     11  H   UNL     1      18.144  30.600   9.849  1.00  0.00     0.163 HD
ATOM     12  H   UNL     1      19.213  31.887   9.179  1.00  0.00     0.163 HD
ENDBRANCH   7   8
ENDBRANCH   1   7
TORSDOF 4
ENDMDL
MODEL 4
REMARK VINA RESULT:    -4.204      1.132      1.683
REMARK INTER + INTRA:          -5.300
REMARK INTER:                  -5.201
REMARK INTRA:                  -0.099
REMARK UNBOUND:                -0.112
REMARK SMILES C[N+](C)(C)CCOC(N)=O
REMARK SMILES IDX 6 1 5 2 2 3 1 4 3 5 4 6 7 7 8 8 9 9 10 10
REMARK H PARENT 9 11 9 12
REMARK Flexibility Score: inf
ROOT
ATOM      1  C   UNL     1      15.606  30.945   7.585  1.00  0.00     0.296 C 
ENDROOT
BRANCH   1   2
ATOM      2  C   UNL     1      15.819  31.859   8.812  1.00  0.00     0.305 C 
BRANCH   2   3
ATOM      3  N   UNL     1      16.716  33.034   8.585  1.00  0.00    -0.328 N 
ATOM      4  C   UNL     1      17.316  33.410   9.888  1.00  0.00     0.334 C 
ATOM      5  C   UNL     1      17.815  32.700   7.645  1.00  0.00     0.334 C 
ATOM      6  C   UNL     1      15.956  34.198   8.068  1.00  0.00     0.334 C 
ENDBRANCH   2   3
ENDBRANCH   1   2
BRANCH   1   7
ATOM      7  O   UNL     1      16.040  29.618   7.881  1.00  0.00    -0.444 OA
BRANCH   7   8
ATOM      8  C   UNL     1      16.187  28.621   6.911  1.00  0.00     0.404 C 
ATOM      9  N   UNL     1      15.119  28.361   6.005  1.00  0.00    -0.335 N 
ATOM     10  O   UNL     1      17.250  27.947   6.835  1.00  0.00    -0.225 OA
ATOM     11  H   UNL     1      14.235  28.912   6.063  1.00  0.00     0.163 HD
ATOM     12  H   UNL     1      15.211  27.618   5.276  1.00  0.00     0.163 HD
ENDBRANCH   7   8
ENDBRANCH   1   7
TORSDOF 4
ENDMDL
MODEL 5
REMARK VINA RESULT:    -4.203      1.144      1.754
REMARK INTER + INTRA:          -5.298
REMARK INTER:                  -5.173
REMARK INTRA:                  -0.125
REMARK UNBOUND:                -0.112
REMARK SMILES C[N+](C)(C)CCOC(N)=O
REMARK SMILES IDX 6 1 5 2 2 3 1 4 3 5 4 6 7 7 8 8 9 9 10 10
REMARK H PARENT 9 11 9 12
REMARK Flexibility Score: inf
ROOT
ATOM      1  C   UNL     1      16.968  31.064   7.701  1.00  0.00     0.296 C 
ENDROOT
BRANCH   1   2
ATOM      2  C   UNL     1      16.036  31.884   8.620  1.00  0.00     0.305 C 
BRANCH   2   3
ATOM      3  N   UNL     1      16.726  32.714   9.654  1.00  0.00    -0.328 N 
ATOM      4  C   UNL     1      16.521  34.142   9.308  1.00  0.00     0.334 C 
ATOM      5  C   UNL     1      16.159  32.476  11.004  1.00  0.00     0.334 C 
ATOM      6  C   UNL     1      18.185  32.445   9.674  1.00  0.00     0.334 C 
ENDBRANCH   2   3
ENDBRANCH   1   2
BRANCH   1   7
ATOM      7  O   UNL     1      16.688  29.671   7.835  1.00  0.00    -0.444 OA
BRANCH   7   8
ATOM      8  C   UNL     1      16.265  28.864   6.773  1.00  0.00     0.404 C 
ATOM      9  N   UNL     1      17.194  27.981   6.151  1.00  0.00    -0.335 N 
ATOM     10  O   UNL     1      15.076  28.914   6.358  1.00  0.00    -0.225 OA
ATOM     11  H   UNL     1      18.180  27.935   6.487  1.00  0.00     0.163 HD
ATOM     12  H   UNL     1      16.896  27.373   5.355  1.00  0.00     0.163 HD
ENDBRANCH   7   8
ENDBRANCH   1   7
TORSDOF 4
ENDMDL
MODEL 6
REMARK VINA RESULT:    -4.138      1.230      1.913
REMARK INTER + INTRA:          -5.218
REMARK INTER:                  -5.092
REMARK INTRA:                  -0.126
REMARK UNBOUND:                -0.112
REMARK SMILES C[N+](C)(C)CCOC(N)=O
REMARK SMILES IDX 6 1 5 2 2 3 1 4 3 5 4 6 7 7 8 8 9 9 10 10
REMARK H PARENT 9 11 9 12
REMARK Flexibility Score: inf
ROOT
ATOM      1  C   UNL     1      16.963  31.199   7.742  1.00  0.00     0.296 C 
ENDROOT
BRANCH   1   2
ATOM      2  C   UNL     1      16.047  31.920   8.755  1.00  0.00     0.305 C 
BRANCH   2   3
ATOM      3  N   UNL     1      16.750  32.792   9.745  1.00  0.00    -0.328 N 
ATOM      4  C   UNL     1      16.167  32.526  11.083  1.00  0.00     0.334 C 
ATOM      5  C   UNL     1      18.201  32.485   9.800  1.00  0.00     0.334 C 
ATOM      6  C   UNL     1      16.557  34.228   9.430  1.00  0.00     0.334 C 
ENDBRANCH   2   3
ENDBRANCH   1   2
BRANCH   1   7
ATOM      7  O   UNL     1      16.874  29.786   7.919  1.00  0.00    -0.444 OA
BRANCH   7   8
ATOM      8  C   UNL     1      16.360  28.919   6.949  1.00  0.00     0.404 C 
ATOM      9  N   UNL     1      17.245  28.060   6.236  1.00  0.00    -0.335 N 
ATOM     10  O   UNL     1      15.125  28.893   6.695  1.00  0.00    -0.225 OA
ATOM     11  H   UNL     1      18.269  28.077   6.438  1.00  0.00     0.163 HD
ATOM     12  H   UNL     1      16.879  27.408   5.506  1.00  0.00     0.163 HD
ENDBRANCH   7   8
ENDBRANCH   1   7
TORSDOF 4
ENDMDL
MODEL 7
REMARK VINA RESULT:    -4.114     10.449     11.624
REMARK INTER + INTRA:          -5.188
REMARK INTER:                  -5.043
REMARK INTRA:                  -0.145
REMARK UNBOUND:                -0.112
REMARK SMILES C[N+](C)(C)CCOC(N)=O
REMARK SMILES IDX 6 1 5 2 2 3 1 4 3 5 4 6 7 7 8 8 9 9 10 10
REMARK H PARENT 9 11 9 12
REMARK Flexibility Score: inf
ROOT
ATOM      1  C   UNL     1       6.218  27.513   9.856  1.00  0.00     0.296 C 
ENDROOT
BRANCH   1   2
ATOM      2  C   UNL     1       5.848  26.926   8.476  1.00  0.00     0.305 C 
BRANCH   2   3
ATOM      3  N   UNL     1       5.403  25.499   8.486  1.00  0.00    -0.328 N 
ATOM      4  C   UNL     1       6.609  24.643   8.364  1.00  0.00     0.334 C 
ATOM      5  C   UNL     1       4.717  25.157   9.757  1.00  0.00     0.334 C 
ATOM      6  C   UNL     1       4.506  25.206   7.342  1.00  0.00     0.334 C 
ENDBRANCH   2   3
ENDBRANCH   1   2
BRANCH   1   7
ATOM      7  O   UNL     1       7.636  27.592   9.990  1.00  0.00    -0.444 OA
BRANCH   7   8
ATOM      8  C   UNL     1       8.344  28.798   9.998  1.00  0.00     0.404 C 
ATOM      9  N   UNL     1       7.973  29.835   9.094  1.00  0.00    -0.335 N 
ATOM     10  O   UNL     1       9.310  28.976  10.789  1.00  0.00    -0.225 OA
ATOM     11  H   UNL     1       7.177  29.695   8.434  1.00  0.00     0.163 HD
ATOM     12  H   UNL     1       8.492  30.741   9.083  1.00  0.00     0.163 HD
ENDBRANCH   7   8
ENDBRANCH   1   7
TORSDOF 4
ENDMDL
MODEL 8
REMARK VINA RESULT:    -4.040      2.319      2.595
REMARK INTER + INTRA:          -5.097
REMARK INTER:                  -4.974
REMARK INTRA:                  -0.123
REMARK UNBOUND:                -0.112
REMARK SMILES C[N+](C)(C)CCOC(N)=O
REMARK SMILES IDX 6 1 5 2 2 3 1 4 3 5 4 6 7 7 8 8 9 9 10 10
REMARK H PARENT 9 11 9 12
REMARK Flexibility Score: inf
ROOT
ATOM      1  C   UNL     1      16.626  31.825   8.172  1.00  0.00     0.296 C 
ENDROOT
BRANCH   1   2
ATOM      2  C   UNL     1      16.313  33.084   9.011  1.00  0.00     0.305 C 
BRANCH   2   3
ATOM      3  N   UNL     1      17.013  33.164  10.329  1.00  0.00    -0.328 N 
ATOM      4  C   UNL     1      18.268  32.378  10.229  1.00  0.00     0.334 C 
ATOM      5  C   UNL     1      17.367  34.564  10.669  1.00  0.00     0.334 C 
ATOM      6  C   UNL     1      16.186  32.582  11.414  1.00  0.00     0.334 C 
ENDBRANCH   2   3
ENDBRANCH   1   2
BRANCH   1   7
ATOM      7  O   UNL     1      15.510  31.494   7.348  1.00  0.00    -0.444 OA
BRANCH   7   8
ATOM      8  C   UNL     1      14.650  30.422   7.607  1.00  0.00     0.404 C 
ATOM      9  N   UNL     1      14.246  30.156   8.947  1.00  0.00    -0.335 N 
ATOM     10  O   UNL     1      14.234  29.687   6.671  1.00  0.00    -0.225 OA
ATOM     11  H   UNL     1      14.587  30.758   9.728  1.00  0.00     0.163 HD
ATOM     12  H   UNL     1      13.606  29.358   9.159  1.00  0.00     0.163 HD
ENDBRANCH   7   8
ENDBRANCH   1   7
TORSDOF 4
ENDMDL
MODEL 9
REMARK VINA RESULT:    -4.021      1.996      2.679
REMARK INTER + INTRA:          -5.073
REMARK INTER:                  -4.882
REMARK INTRA:                  -0.192
REMARK UNBOUND:                -0.112
REMARK SMILES C[N+](C)(C)CCOC(N)=O
REMARK SMILES IDX 6 1 5 2 2 3 1 4 3 5 4 6 7 7 8 8 9 9 10 10
REMARK H PARENT 9 11 9 12
REMARK Flexibility Score: inf
ROOT
ATOM      1  C   UNL     1      16.543  33.052   8.055  1.00  0.00     0.296 C 
ENDROOT
BRANCH   1   2
ATOM      2  C   UNL     1      16.175  32.551   9.469  1.00  0.00     0.305 C 
BRANCH   2   3
ATOM      3  N   UNL     1      17.059  33.041  10.571  1.00  0.00    -0.328 N 
ATOM      4  C   UNL     1      17.124  34.521  10.481  1.00  0.00     0.334 C 
ATOM      5  C   UNL     1      16.513  32.680  11.903  1.00  0.00     0.334 C 
ATOM      6  C   UNL     1      18.435  32.506  10.435  1.00  0.00     0.334 C 
ENDBRANCH   2   3
ENDBRANCH   1   2
BRANCH   1   7
ATOM      7  O   UNL     1      16.567  31.959   7.138  1.00  0.00    -0.444 OA
BRANCH   7   8
ATOM      8  C   UNL     1      17.423  30.861   7.269  1.00  0.00     0.404 C 
ATOM      9  N   UNL     1      18.793  30.992   6.901  1.00  0.00    -0.335 N 
ATOM     10  O   UNL     1      16.995  29.756   7.702  1.00  0.00    -0.225 OA
ATOM     11  H   UNL     1      19.154  31.902   6.539  1.00  0.00     0.163 HD
ATOM     12  H   UNL     1      19.446  30.181   6.989  1.00  0.00     0.163 HD
ENDBRANCH   7   8
ENDBRANCH   1   7
TORSDOF 4
ENDMDL
MODEL 10
REMARK VINA RESULT:    -3.965      2.072      2.821
REMARK INTER + INTRA:          -5.004
REMARK INTER:                  -4.880
REMARK INTRA:                  -0.124
REMARK UNBOUND:                -0.112
REMARK SMILES C[N+](C)(C)CCOC(N)=O
REMARK SMILES IDX 6 1 5 2 2 3 1 4 3 5 4 6 7 7 8 8 9 9 10 10
REMARK H PARENT 9 11 9 12
REMARK Flexibility Score: inf
ROOT
ATOM      1  C   UNL     1      16.143  32.356   8.678  1.00  0.00     0.296 C 
ENDROOT
BRANCH   1   2
ATOM      2  C   UNL     1      17.371  32.708   9.547  1.00  0.00     0.305 C 
BRANCH   2   3
ATOM      3  N   UNL     1      17.083  33.557  10.744  1.00  0.00    -0.328 N 
ATOM      4  C   UNL     1      16.191  32.788  11.647  1.00  0.00     0.334 C 
ATOM      5  C   UNL     1      18.326  33.882  11.486  1.00  0.00     0.334 C 
ATOM      6  C   UNL     1      16.390  34.810  10.361  1.00  0.00     0.334 C 
ENDBRANCH   2   3
ENDBRANCH   1   2
BRANCH   1   7
ATOM      7  O   UNL     1      16.566  31.801   7.434  1.00  0.00    -0.444 OA
BRANCH   7   8
ATOM      8  C   UNL     1      17.388  30.674   7.331  1.00  0.00     0.404 C 
ATOM      9  N   UNL     1      18.695  30.807   6.779  1.00  0.00    -0.335 N 
ATOM     10  O   UNL     1      16.984  29.543   7.714  1.00  0.00    -0.225 OA
ATOM     11  H   UNL     1      19.036  31.739   6.457  1.00  0.00     0.163 HD
ATOM     12  H   UNL     1      19.321  29.976   6.692  1.00  0.00     0.163 HD
ENDBRANCH   7   8
ENDBRANCH   1   7
TORSDOF 4
ENDMDL
MODEL 11
REMARK VINA RESULT:    -3.875      9.042      9.910
REMARK INTER + INTRA:          -4.894
REMARK INTER:                  -4.647
REMARK INTRA:                  -0.247
REMARK UNBOUND:                -0.112
REMARK SMILES C[N+](C)(C)CCOC(N)=O
REMARK SMILES IDX 6 1 5 2 2 3 1 4 3 5 4 6 7 7 8 8 9 9 10 10
REMARK H PARENT 9 11 9 12
REMARK Flexibility Score: inf
ROOT
ATOM      1  C   UNL     1      16.783  34.497  15.217  1.00  0.00     0.296 C 
ENDROOT
BRANCH   1   2
ATOM      2  C   UNL     1      17.587  35.728  15.691  1.00  0.00     0.305 C 
BRANCH   2   3
ATOM      3  N   UNL     1      18.004  35.703  17.127  1.00  0.00    -0.328 N 
ATOM      4  C   UNL     1      19.226  36.535  17.263  1.00  0.00     0.334 C 
ATOM      5  C   UNL     1      16.953  36.275  18.004  1.00  0.00     0.334 C 
ATOM      6  C   UNL     1      18.327  34.325  17.570  1.00  0.00     0.334 C 
ENDBRANCH   2   3
ENDBRANCH   1   2
BRANCH   1   7
ATOM      7  O   UNL     1      15.427  34.864  14.966  1.00  0.00    -0.444 OA
BRANCH   7   8
ATOM      8  C   UNL     1      14.336  34.261  15.599  1.00  0.00     0.404 C 
ATOM      9  N   UNL     1      14.456  33.839  16.955  1.00  0.00    -0.335 N 
ATOM     10  O   UNL     1      13.250  34.081  14.983  1.00  0.00    -0.225 OA
ATOM     11  H   UNL     1      15.351  33.982  17.471  1.00  0.00     0.163 HD
ATOM     12  H   UNL     1      13.651  33.384  17.442  1.00  0.00     0.163 HD
ENDBRANCH   7   8
ENDBRANCH   1   7
TORSDOF 4
ENDMDL
MODEL 12
REMARK VINA RESULT:    -3.863     11.831     12.684
REMARK INTER + INTRA:          -4.879
REMARK INTER:                  -4.557
REMARK INTRA:                  -0.321
REMARK UNBOUND:                -0.112
REMARK SMILES C[N+](C)(C)CCOC(N)=O
REMARK SMILES IDX 6 1 5 2 2 3 1 4 3 5 4 6 7 7 8 8 9 9 10 10
REMARK H PARENT 9 11 9 12
REMARK Flexibility Score: inf
ROOT
ATOM      1  C   UNL     1       5.803  26.149  10.227  1.00  0.00     0.296 C 
ENDROOT
BRANCH   1   2
ATOM      2  C   UNL     1       5.274  26.887   8.978  1.00  0.00     0.305 C 
BRANCH   2   3
ATOM      3  N   UNL     1       3.995  26.356   8.415  1.00  0.00    -0.328 N 
ATOM      4  C   UNL     1       3.119  27.511   8.099  1.00  0.00     0.334 C 
ATOM      5  C   UNL     1       4.230  25.594   7.164  1.00  0.00     0.334 C 
ATOM      6  C   UNL     1       3.292  25.494   9.397  1.00  0.00     0.334 C 
ENDBRANCH   2   3
ENDBRANCH   1   2
BRANCH   1   7
ATOM      7  O   UNL     1       7.052  25.525   9.936  1.00  0.00    -0.444 OA
BRANCH   7   8
ATOM      8  C   UNL     1       7.167  24.310   9.252  1.00  0.00     0.404 C 
ATOM      9  N   UNL     1       8.325  24.057   8.461  1.00  0.00    -0.335 N 
ATOM     10  O   UNL     1       6.257  23.440   9.322  1.00  0.00    -0.225 OA
ATOM     11  H   UNL     1       9.082  24.773   8.395  1.00  0.00     0.163 HD
ATOM     12  H   UNL     1       8.426  23.157   7.941  1.00  0.00     0.163 HD
ENDBRANCH   7   8
ENDBRANCH   1   7
TORSDOF 4
ENDMDL
MODEL 13
REMARK VINA RESULT:    -3.833     11.767     12.836
REMARK INTER + INTRA:          -4.842
REMARK INTER:                  -4.543
REMARK INTRA:                  -0.299
REMARK UNBOUND:                -0.112
REMARK SMILES C[N+](C)(C)CCOC(N)=O
REMARK SMILES IDX 6 1 5 2 2 3 1 4 3 5 4 6 7 7 8 8 9 9 10 10
REMARK H PARENT 9 11 9 12
REMARK Flexibility Score: inf
ROOT
ATOM      1  C   UNL     1       6.032  27.661  10.033  1.00  0.00     0.296 C 
ENDROOT
BRANCH   1   2
ATOM      2  C   UNL     1       6.379  26.542   9.026  1.00  0.00     0.305 C 
BRANCH   2   3
ATOM      3  N   UNL     1       5.448  25.373   9.025  1.00  0.00    -0.328 N 
ATOM      4  C   UNL     1       6.257  24.145   9.227  1.00  0.00     0.334 C 
ATOM      5  C   UNL     1       4.462  25.466  10.130  1.00  0.00     0.334 C 
ATOM      6  C   UNL     1       4.736  25.253   7.730  1.00  0.00     0.334 C 
ENDBRANCH   2   3
ENDBRANCH   1   2
BRANCH   1   7
ATOM      7  O   UNL     1       5.664  28.851   9.337  1.00  0.00    -0.444 OA
BRANCH   7   8
ATOM      8  C   UNL     1       4.527  28.951   8.528  1.00  0.00     0.404 C 
ATOM      9  N   UNL     1       3.245  29.089   9.133  1.00  0.00    -0.335 N 
ATOM     10  O   UNL     1       4.624  28.914   7.271  1.00  0.00    -0.225 OA
ATOM     11  H   UNL     1       3.156  29.118  10.172  1.00  0.00     0.163 HD
ATOM     12  H   UNL     1       2.385  29.162   8.544  1.00  0.00     0.163 HD
ENDBRANCH   7   8
ENDBRANCH   1   7
TORSDOF 4
ENDMDL
MODEL 14
REMARK VINA RESULT:    -3.771      7.292      8.513
REMARK INTER + INTRA:          -4.765
REMARK INTER:                  -4.640
REMARK INTRA:                  -0.125
REMARK UNBOUND:                -0.112
REMARK SMILES C[N+](C)(C)CCOC(N)=O
REMARK SMILES IDX 6 1 5 2 2 3 1 4 3 5 4 6 7 7 8 8 9 9 10 10
REMARK H PARENT 9 11 9 12
REMARK Flexibility Score: inf
ROOT
ATOM      1  C   UNL     1      16.165  34.280  13.961  1.00  0.00     0.296 C 
ENDROOT
BRANCH   1   2
ATOM      2  C   UNL     1      17.375  33.713  14.735  1.00  0.00     0.305 C 
BRANCH   2   3
ATOM      3  N   UNL     1      18.689  33.811  14.028  1.00  0.00    -0.328 N 
ATOM      4  C   UNL     1      18.418  33.912  12.572  1.00  0.00     0.334 C 
ATOM      5  C   UNL     1      19.438  35.022  14.446  1.00  0.00     0.334 C 
ATOM      6  C   UNL     1      19.519  32.606  14.265  1.00  0.00     0.334 C 
ENDBRANCH   2   3
ENDBRANCH   1   2
BRANCH   1   7
ATOM      7  O   UNL     1      15.316  35.011  14.845  1.00  0.00    -0.444 OA
BRANCH   7   8
ATOM      8  C   UNL     1      14.209  34.450  15.490  1.00  0.00     0.404 C 
ATOM      9  N   UNL     1      14.283  34.153  16.882  1.00  0.00    -0.335 N 
ATOM     10  O   UNL     1      13.149  34.200  14.855  1.00  0.00    -0.225 OA
ATOM     11  H   UNL     1      15.157  34.355  17.415  1.00  0.00     0.163 HD
ATOM     12  H   UNL     1      13.467  33.731  17.379  1.00  0.00     0.163 HD
ENDBRANCH   7   8
ENDBRANCH   1   7
TORSDOF 4
ENDMDL
MODEL 15
REMARK VINA RESULT:    -3.767      7.315      8.623
REMARK INTER + INTRA:          -4.760
REMARK INTER:                  -4.646
REMARK INTRA:                  -0.114
REMARK UNBOUND:                -0.112
REMARK SMILES C[N+](C)(C)CCOC(N)=O
REMARK SMILES IDX 6 1 5 2 2 3 1 4 3 5 4 6 7 7 8 8 9 9 10 10
REMARK H PARENT 9 11 9 12
REMARK Flexibility Score: inf
ROOT
ATOM      1  C   UNL     1      16.252  34.261  14.051  1.00  0.00     0.296 C 
ENDROOT
BRANCH   1   2
ATOM      2  C   UNL     1      17.497  33.863  14.873  1.00  0.00     0.305 C 
BRANCH   2   3
ATOM      3  N   UNL     1      18.773  33.775  14.098  1.00  0.00    -0.328 N 
ATOM      4  C   UNL     1      19.628  34.921  14.492  1.00  0.00     0.334 C 
ATOM      5  C   UNL     1      19.505  32.521  14.404  1.00  0.00     0.334 C 
ATOM      6  C   UNL     1      18.522  33.860  12.639  1.00  0.00     0.334 C 
ENDBRANCH   2   3
ENDBRANCH   1   2
BRANCH   1   7
ATOM      7  O   UNL     1      15.344  35.003  14.864  1.00  0.00    -0.444 OA
BRANCH   7   8
ATOM      8  C   UNL     1      14.231  34.436  15.493  1.00  0.00     0.404 C 
ATOM      9  N   UNL     1      14.252  34.224  16.902  1.00  0.00    -0.335 N 
ATOM     10  O   UNL     1      13.212  34.104  14.827  1.00  0.00    -0.225 OA
ATOM     11  H   UNL     1      15.092  34.493  17.460  1.00  0.00     0.163 HD
ATOM     12  H   UNL     1      13.431  33.799  17.387  1.00  0.00     0.163 HD
ENDBRANCH   7   8
ENDBRANCH   1   7
TORSDOF 4
ENDMDL
