MODEL 1
REMARK VINA RESULT:    -8.145      0.000      0.000
REMARK INTER + INTRA:         -11.890
REMARK INTER:                 -10.764
REMARK INTRA:                  -1.125
REMARK UNBOUND:                -1.125
REMARK SMILES OC(CCN1CCCCC1)(c1ccccc1)C1CCCC1
REMARK SMILES IDX 3 1 2 2 1 3 17 5 18 6 21 7 19 8 20 9 11 10 12 11 16 12 13 13
REMARK SMILES IDX 15 14 14 15 4 16 5 17 6 18 10 19 7 20 9 21 8 22
REMARK H PARENT 1 4
REMARK Flexibility Score: inf
ROOT
ATOM      1  C   UNL     1      10.487  12.690  15.413  1.00  0.00     0.056 C 
ENDROOT
BRANCH   1   2
ATOM      2  C   UNL     1      11.976  12.617  14.919  1.00  0.00     0.094 C 
BRANCH   2   3
ATOM      3  O   UNL     1      12.647  13.770  15.382  1.00  0.00    -0.385 OA
ATOM      4  H   UNL     1      11.991  14.346  15.858  1.00  0.00     0.211 HD
ENDBRANCH   2   3
BRANCH   2   5
ATOM      5  C   UNL     1      12.162  12.563  13.355  1.00  0.00     0.025 C 
ATOM      6  C   UNL     1      10.908  12.767  12.498  1.00  0.00     0.007 C 
ATOM      7  C   UNL     1      13.222  13.516  12.772  1.00  0.00     0.007 C 
ATOM      8  C   UNL     1      11.437  13.184  11.140  1.00  0.00     0.000 C 
ATOM      9  C   UNL     1      12.682  14.007  11.431  1.00  0.00     0.000 C 
ENDBRANCH   2   5
BRANCH   2  10
ATOM     10  C   UNL     1      12.655  11.364  15.513  1.00  0.00    -0.016 A 
ATOM     11  C   UNL     1      13.643  11.488  16.517  1.00  0.00     0.007 A 
ATOM     12  C   UNL     1      12.392  10.074  14.999  1.00  0.00     0.007 A 
ATOM     13  C   UNL     1      14.291  10.360  17.028  1.00  0.00     0.000 A 
ATOM     14  C   UNL     1      13.046   8.950  15.515  1.00  0.00     0.000 A 
ATOM     15  C   UNL     1      13.989   9.093  16.532  1.00  0.00     0.000 A 
ENDBRANCH   2  10
ENDBRANCH   1   2
BRANCH   1  16
ATOM     16  C   UNL     1      10.319  13.037  16.913  1.00  0.00     0.088 C 
BRANCH  16  17
ATOM     17  N   UNL     1       9.390  12.146  17.643  1.00  0.00    -0.303 NA
ATOM     18  C   UNL     1       9.077  12.625  19.009  1.00  0.00     0.084 C 
ATOM     19  C   UNL     1       9.772  10.723  17.613  1.00  0.00     0.084 C 
ATOM     20  C   UNL     1       8.314  11.571  19.841  1.00  0.00     0.016 C 
ATOM     21  C   UNL     1       8.572   9.843  18.006  1.00  0.00     0.016 C 
ATOM     22  C   UNL     1       7.587  10.570  18.940  1.00  0.00     0.003 C 
ENDBRANCH  16  17
ENDBRANCH   1  16
TORSDOF 6
ENDMDL
MODEL 2
REMARK VINA RESULT:    -8.014     10.865     14.248
REMARK INTER + INTRA:         -11.716
REMARK INTER:                 -10.484
REMARK INTRA:                  -1.233
REMARK UNBOUND:                -1.125
REMARK SMILES OC(CCN1CCCCC1)(c1ccccc1)C1CCCC1
REMARK SMILES IDX 3 1 2 2 1 3 17 5 18 6 21 7 19 8 20 9 11 10 12 11 16 12 13 13
REMARK SMILES IDX 15 14 14 15 4 16 5 17 6 18 10 19 7 20 9 21 8 22
REMARK H PARENT 1 4
REMARK Flexibility Score: inf
ROOT
ATOM      1  C   UNL     1      18.074  13.741   3.191  1.00  0.00     0.056 C 
ENDROOT
BRANCH   1   2
ATOM      2  C   UNL     1      16.778  13.037   3.733  1.00  0.00     0.094 C 
BRANCH   2   3
ATOM      3  O   UNL     1      17.145  11.763   4.220  1.00  0.00    -0.385 OA
ATOM      4  H   UNL     1      16.540  11.528   4.973  1.00  0.00     0.211 HD
ENDBRANCH   2   3
BRANCH   2   5
ATOM      5  C   UNL     1      15.638  12.820   2.668  1.00  0.00     0.025 C 
ATOM      6  C   UNL     1      15.964  13.183   1.215  1.00  0.00     0.007 C 
ATOM      7  C   UNL     1      15.029  11.406   2.614  1.00  0.00     0.007 C 
ATOM      8  C   UNL     1      14.951  12.413   0.391  1.00  0.00     0.000 C 
ATOM      9  C   UNL     1      14.728  11.112   1.146  1.00  0.00     0.000 C 
ENDBRANCH   2   5
BRANCH   2  10
ATOM     10  C   UNL     1      16.184  13.869   4.889  1.00  0.00    -0.016 A 
ATOM     11  C   UNL     1      15.326  13.271   5.841  1.00  0.00     0.007 A 
ATOM     12  C   UNL     1      16.390  15.264   4.970  1.00  0.00     0.007 A 
ATOM     13  C   UNL     1      14.752  14.029   6.865  1.00  0.00     0.000 A 
ATOM     14  C   UNL     1      15.811  16.017   5.997  1.00  0.00     0.000 A 
ATOM     15  C   UNL     1      14.999  15.399   6.947  1.00  0.00     0.000 A 
ENDBRANCH   2  10
ENDBRANCH   1   2
BRANCH   1  16
ATOM     16  C   UNL     1      19.314  12.819   3.085  1.00  0.00     0.088 C 
BRANCH  16  17
ATOM     17  N   UNL     1      20.245  12.920   4.231  1.00  0.00    -0.303 NA
ATOM     18  C   UNL     1      20.287  14.273   4.832  1.00  0.00     0.084 C 
ATOM     19  C   UNL     1      21.589  12.375   3.963  1.00  0.00     0.084 C 
ATOM     20  C   UNL     1      21.434  14.429   5.854  1.00  0.00     0.016 C 
ATOM     21  C   UNL     1      22.335  12.128   5.287  1.00  0.00     0.016 C 
ATOM     22  C   UNL     1      21.870  13.071   6.412  1.00  0.00     0.003 C 
ENDBRANCH  16  17
ENDBRANCH   1  16
TORSDOF 6
ENDMDL
MODEL 3
REMARK VINA RESULT:    -7.997      2.426      5.128
REMARK INTER + INTRA:         -11.693
REMARK INTER:                 -10.501
REMARK INTRA:                  -1.193
REMARK UNBOUND:                -1.125
REMARK SMILES OC(CCN1CCCCC1)(c1ccccc1)C1CCCC1
REMARK SMILES IDX 3 1 2 2 1 3 17 5 18 6 21 7 19 8 20 9 11 10 12 11 16 12 13 13
REMARK SMILES IDX 15 14 14 15 4 16 5 17 6 18 10 19 7 20 9 21 8 22
REMARK H PARENT 1 4
REMARK Flexibility Score: inf
ROOT
ATOM      1  C   UNL     1      10.684  10.295  16.844  1.00  0.00     0.056 C 
ENDROOT
BRANCH   1   2
ATOM      2  C   UNL     1      11.614  10.625  15.621  1.00  0.00     0.094 C 
BRANCH   2   3
ATOM      3  O   UNL     1      11.636   9.496  14.774  1.00  0.00    -0.385 OA
ATOM      4  H   UNL     1      10.995   8.824  15.128  1.00  0.00     0.211 HD
ENDBRANCH   2   3
BRANCH   2   5
ATOM      5  C   UNL     1      13.107  10.967  15.988  1.00  0.00     0.025 C 
ATOM      6  C   UNL     1      13.333  11.995  17.101  1.00  0.00     0.007 C 
ATOM      7  C   UNL     1      14.002   9.765  16.345  1.00  0.00     0.007 C 
ATOM      8  C   UNL     1      14.747  11.734  17.581  1.00  0.00     0.000 C 
ATOM      9  C   UNL     1      14.942  10.232  17.455  1.00  0.00     0.000 C 
ENDBRANCH   2   5
BRANCH   2  10
ATOM     10  C   UNL     1      11.036  11.829  14.845  1.00  0.00    -0.016 A 
ATOM     11  C   UNL     1      11.437  12.086  13.514  1.00  0.00     0.007 A 
ATOM     12  C   UNL     1      10.182  12.764  15.472  1.00  0.00     0.007 A 
ATOM     13  C   UNL     1      10.949  13.199  12.822  1.00  0.00     0.000 A 
ATOM     14  C   UNL     1       9.700  13.875  14.773  1.00  0.00     0.000 A 
ATOM     15  C   UNL     1      10.078  14.088  13.448  1.00  0.00     0.000 A 
ENDBRANCH   2  10
ENDBRANCH   1   2
BRANCH   1  16
ATOM     16  C   UNL     1      10.928   8.907  17.485  1.00  0.00     0.088 C 
BRANCH  16  17
ATOM     17  N   UNL     1      11.923   8.909  18.581  1.00  0.00    -0.303 NA
ATOM     18  C   UNL     1      12.505   7.572  18.842  1.00  0.00     0.084 C 
ATOM     19  C   UNL     1      11.463   9.578  19.810  1.00  0.00     0.084 C 
ATOM     20  C   UNL     1      13.346   7.538  20.137  1.00  0.00     0.016 C 
ATOM     21  C   UNL     1      12.663   9.910  20.716  1.00  0.00     0.016 C 
ATOM     22  C   UNL     1      13.840   8.937  20.516  1.00  0.00     0.003 C 
ENDBRANCH  16  17
ENDBRANCH   1  16
TORSDOF 6
ENDMDL
MODEL 4
REMARK VINA RESULT:    -7.883      1.346      4.220
REMARK INTER + INTRA:         -11.542
REMARK INTER:                  -9.636
REMARK INTRA:                  -1.906
REMARK UNBOUND:                -1.125
REMARK SMILES OC(CCN1CCCCC1)(c1ccccc1)C1CCCC1
REMARK SMILES IDX 3 1 2 2 1 3 17 5 18 6 21 7 19 8 20 9 11 10 12 11 16 12 13 13
REMARK SMILES IDX 15 14 14 15 4 16 5 17 6 18 10 19 7 20 9 21 8 22
REMARK H PARENT 1 4
REMARK Flexibility Score: inf
ROOT
ATOM      1  C   UNL     1      11.951  13.217  16.466  1.00  0.00     0.056 C 
ENDROOT
BRANCH   1   2
ATOM      2  C   UNL     1      12.011  12.397  15.127  1.00  0.00     0.094 C 
BRANCH   2   3
ATOM      3  O   UNL     1      10.687  12.075  14.753  1.00  0.00    -0.385 OA
ATOM      4  H   UNL     1      10.230  11.666  15.535  1.00  0.00     0.211 HD
ENDBRANCH   2   3
BRANCH   2   5
ATOM      5  C   UNL     1      12.817  11.046  15.204  1.00  0.00     0.025 C 
ATOM      6  C   UNL     1      13.688  10.825  16.446  1.00  0.00     0.007 C 
ATOM      7  C   UNL     1      11.986   9.759  15.047  1.00  0.00     0.007 C 
ATOM      8  C   UNL     1      13.895   9.324  16.506  1.00  0.00     0.000 C 
ATOM      9  C   UNL     1      12.601   8.721  15.984  1.00  0.00     0.000 C 
ENDBRANCH   2   5
BRANCH   2  10
ATOM     10  C   UNL     1      12.653  13.262  14.022  1.00  0.00    -0.016 A 
ATOM     11  C   UNL     1      12.748  12.781  12.695  1.00  0.00     0.007 A 
ATOM     12  C   UNL     1      13.260  14.503  14.321  1.00  0.00     0.007 A 
ATOM     13  C   UNL     1      13.367  13.543  11.699  1.00  0.00     0.000 A 
ATOM     14  C   UNL     1      13.879  15.258  13.319  1.00  0.00     0.000 A 
ATOM     15  C   UNL     1      13.926  14.782  12.010  1.00  0.00     0.000 A 
ENDBRANCH   2  10
ENDBRANCH   1   2
BRANCH   1  16
ATOM     16  C   UNL     1      10.640  13.043  17.272  1.00  0.00     0.088 C 
BRANCH  16  17
ATOM     17  N   UNL     1      10.387  11.658  17.730  1.00  0.00    -0.303 NA
ATOM     18  C   UNL     1       8.955  11.283  17.689  1.00  0.00     0.084 C 
ATOM     19  C   UNL     1      11.025  11.324  19.016  1.00  0.00     0.084 C 
ATOM     20  C   UNL     1       8.677   9.939  18.397  1.00  0.00     0.016 C 
ATOM     21  C   UNL     1      11.076   9.797  19.203  1.00  0.00     0.016 C 
ATOM     22  C   UNL     1       9.937   9.073  18.460  1.00  0.00     0.003 C 
ENDBRANCH  16  17
ENDBRANCH   1  16
TORSDOF 6
ENDMDL
MODEL 5
REMARK VINA RESULT:    -7.867      2.024      5.425
REMARK INTER + INTRA:         -11.522
REMARK INTER:                 -10.201
REMARK INTRA:                  -1.321
REMARK UNBOUND:                -1.125
REMARK SMILES OC(CCN1CCCCC1)(c1ccccc1)C1CCCC1
REMARK SMILES IDX 3 1 2 2 1 3 17 5 18 6 21 7 19 8 20 9 11 10 12 11 16 12 13 13
REMARK SMILES IDX 15 14 14 15 4 16 5 17 6 18 10 19 7 20 9 21 8 22
REMARK H PARENT 1 4
REMARK Flexibility Score: inf
ROOT
ATOM      1  C   UNL     1      12.691  13.250  14.189  1.00  0.00     0.056 C 
ENDROOT
BRANCH   1   2
ATOM      2  C   UNL     1      11.749  12.183  14.855  1.00  0.00     0.094 C 
BRANCH   2   3
ATOM      3  O   UNL     1      10.965  11.597  13.836  1.00  0.00    -0.385 OA
ATOM      4  H   UNL     1      10.545  10.772  14.198  1.00  0.00     0.211 HD
ENDBRANCH   2   3
BRANCH   2   5
ATOM      5  C   UNL     1      10.758  12.749  15.941  1.00  0.00     0.025 C 
ATOM      6  C   UNL     1       9.568  13.573  15.436  1.00  0.00     0.007 C 
ATOM      7  C   UNL     1      10.162  11.712  16.911  1.00  0.00     0.007 C 
ATOM      8  C   UNL     1       8.561  13.523  16.568  1.00  0.00     0.000 C 
ATOM      9  C   UNL     1       8.724  12.144  17.188  1.00  0.00     0.000 C 
ENDBRANCH   2   5
BRANCH   2  10
ATOM     10  C   UNL     1      12.604  11.089  15.528  1.00  0.00    -0.016 A 
ATOM     11  C   UNL     1      13.552  11.424  16.522  1.00  0.00     0.007 A 
ATOM     12  C   UNL     1      12.544   9.743  15.098  1.00  0.00     0.007 A 
ATOM     13  C   UNL     1      14.359  10.442  17.104  1.00  0.00     0.000 A 
ATOM     14  C   UNL     1      13.356   8.767  15.685  1.00  0.00     0.000 A 
ATOM     15  C   UNL     1      14.257   9.115  16.691  1.00  0.00     0.000 A 
ENDBRANCH   2  10
ENDBRANCH   1   2
BRANCH   1  16
ATOM     16  C   UNL     1      12.823  13.125  12.651  1.00  0.00     0.088 C 
BRANCH  16  17
ATOM     17  N   UNL     1      11.618  13.543  11.901  1.00  0.00    -0.303 NA
ATOM     18  C   UNL     1      11.778  13.433  10.432  1.00  0.00     0.084 C 
ATOM     19  C   UNL     1      11.073  14.848  12.317  1.00  0.00     0.084 C 
ATOM     20  C   UNL     1      10.618  14.101   9.662  1.00  0.00     0.016 C 
ATOM     21  C   UNL     1       9.627  15.005  11.813  1.00  0.00     0.016 C 
ATOM     22  C   UNL     1       9.359  14.200  10.528  1.00  0.00     0.003 C 
ENDBRANCH  16  17
ENDBRANCH   1  16
TORSDOF 6
ENDMDL
MODEL 6
REMARK VINA RESULT:    -7.856      2.574      4.412
REMARK INTER + INTRA:         -11.508
REMARK INTER:                  -9.714
REMARK INTRA:                  -1.794
REMARK UNBOUND:                -1.125
REMARK SMILES OC(CCN1CCCCC1)(c1ccccc1)C1CCCC1
REMARK SMILES IDX 3 1 2 2 1 3 17 5 18 6 21 7 19 8 20 9 11 10 12 11 16 12 13 13
REMARK SMILES IDX 15 14 14 15 4 16 5 17 6 18 10 19 7 20 9 21 8 22
REMARK H PARENT 1 4
REMARK Flexibility Score: inf
ROOT
ATOM      1  C   UNL     1      13.748  11.183  19.322  1.00  0.00     0.056 C 
ENDROOT
BRANCH   1   2
ATOM      2  C   UNL     1      13.938  11.885  17.929  1.00  0.00     0.094 C 
BRANCH   2   3
ATOM      3  O   UNL     1      12.848  12.760  17.730  1.00  0.00    -0.385 OA
ATOM      4  H   UNL     1      12.315  12.795  18.569  1.00  0.00     0.211 HD
ENDBRANCH   2   3
BRANCH   2   5
ATOM      5  C   UNL     1      13.990  10.912  16.691  1.00  0.00     0.025 C 
ATOM      6  C   UNL     1      14.154   9.417  16.986  1.00  0.00     0.007 C 
ATOM      7  C   UNL     1      12.809  11.013  15.708  1.00  0.00     0.007 C 
ATOM      8  C   UNL     1      13.655   8.723  15.734  1.00  0.00     0.000 C 
ATOM      9  C   UNL     1      12.521   9.595  15.218  1.00  0.00     0.000 C 
ENDBRANCH   2   5
BRANCH   2  10
ATOM     10  C   UNL     1      15.248  12.701  17.937  1.00  0.00    -0.016 A 
ATOM     11  C   UNL     1      15.292  13.998  17.375  1.00  0.00     0.007 A 
ATOM     12  C   UNL     1      16.458  12.141  18.403  1.00  0.00     0.007 A 
ATOM     13  C   UNL     1      16.486  14.725  17.342  1.00  0.00     0.000 A 
ATOM     14  C   UNL     1      17.649  12.874  18.365  1.00  0.00     0.000 A 
ATOM     15  C   UNL     1      17.661  14.166  17.841  1.00  0.00     0.000 A 
ENDBRANCH   2  10
ENDBRANCH   1   2
BRANCH   1  16
ATOM     16  C   UNL     1      12.363  11.408  19.976  1.00  0.00     0.088 C 
BRANCH  16  17
ATOM     17  N   UNL     1      11.223  10.915  19.171  1.00  0.00    -0.303 NA
ATOM     18  C   UNL     1       9.949  11.603  19.482  1.00  0.00     0.084 C 
ATOM     19  C   UNL     1      11.087   9.447  19.157  1.00  0.00     0.084 C 
ATOM     20  C   UNL     1       8.733  10.916  18.824  1.00  0.00     0.016 C 
ATOM     21  C   UNL     1      10.181   9.009  17.992  1.00  0.00     0.016 C 
ATOM     22  C   UNL     1       9.153  10.088  17.606  1.00  0.00     0.003 C 
ENDBRANCH  16  17
ENDBRANCH   1  16
TORSDOF 6
ENDMDL
MODEL 7
REMARK VINA RESULT:    -7.824     10.972     14.651
REMARK INTER + INTRA:         -11.465
REMARK INTER:                 -10.485
REMARK INTRA:                  -0.981
REMARK UNBOUND:                -1.125
REMARK SMILES OC(CCN1CCCCC1)(c1ccccc1)C1CCCC1
REMARK SMILES IDX 3 1 2 2 1 3 17 5 18 6 21 7 19 8 20 9 11 10 12 11 16 12 13 13
REMARK SMILES IDX 15 14 14 15 4 16 5 17 6 18 10 19 7 20 9 21 8 22
REMARK H PARENT 1 4
REMARK Flexibility Score: inf
ROOT
ATOM      1  C   UNL     1      17.790  12.766   4.137  1.00  0.00     0.056 C 
ENDROOT
BRANCH   1   2
ATOM      2  C   UNL     1      16.695  13.732   3.559  1.00  0.00     0.094 C 
BRANCH   2   3
ATOM      3  O   UNL     1      17.342  14.898   3.094  1.00  0.00    -0.385 OA
ATOM      4  H   UNL     1      16.955  15.682   3.567  1.00  0.00     0.211 HD
ENDBRANCH   2   3
BRANCH   2   5
ATOM      5  C   UNL     1      15.592  14.187   4.587  1.00  0.00     0.025 C 
ATOM      6  C   UNL     1      15.447  13.354   5.866  1.00  0.00     0.007 C 
ATOM      7  C   UNL     1      15.673  15.652   5.054  1.00  0.00     0.007 C 
ATOM      8  C   UNL     1      14.746  14.275   6.845  1.00  0.00     0.000 C 
ATOM      9  C   UNL     1      15.267  15.668   6.526  1.00  0.00     0.000 C 
ENDBRANCH   2   5
BRANCH   2  10
ATOM     10  C   UNL     1      15.976  13.047   2.376  1.00  0.00    -0.016 A 
ATOM     11  C   UNL     1      15.238  11.858   2.573  1.00  0.00     0.007 A 
ATOM     12  C   UNL     1      16.124  13.523   1.054  1.00  0.00     0.007 A 
ATOM     13  C   UNL     1      14.621  11.211   1.497  1.00  0.00     0.000 A 
ATOM     14  C   UNL     1      15.505  12.870  -0.017  1.00  0.00     0.000 A 
ATOM     15  C   UNL     1      14.749  11.719   0.206  1.00  0.00     0.000 A 
ENDBRANCH   2  10
ENDBRANCH   1   2
BRANCH   1  16
ATOM     16  C   UNL     1      19.198  12.938   3.514  1.00  0.00     0.088 C 
BRANCH  16  17
ATOM     17  N   UNL     1      20.301  12.963   4.501  1.00  0.00    -0.303 NA
ATOM     18  C   UNL     1      20.514  14.300   5.102  1.00  0.00     0.084 C 
ATOM     19  C   UNL     1      21.552  12.350   4.020  1.00  0.00     0.084 C 
ATOM     20  C   UNL     1      21.813  14.372   5.933  1.00  0.00     0.016 C 
ATOM     21  C   UNL     1      22.479  12.036   5.208  1.00  0.00     0.016 C 
ATOM     22  C   UNL     1      22.251  12.982   6.401  1.00  0.00     0.003 C 
ENDBRANCH  16  17
ENDBRANCH   1  16
TORSDOF 6
ENDMDL
MODEL 8
REMARK VINA RESULT:    -7.680     11.104     14.990
REMARK INTER + INTRA:         -11.275
REMARK INTER:                 -10.330
REMARK INTRA:                  -0.945
REMARK UNBOUND:                -1.125
REMARK SMILES OC(CCN1CCCCC1)(c1ccccc1)C1CCCC1
REMARK SMILES IDX 3 1 2 2 1 3 17 5 18 6 21 7 19 8 20 9 11 10 12 11 16 12 13 13
REMARK SMILES IDX 15 14 14 15 4 16 5 17 6 18 10 19 7 20 9 21 8 22
REMARK H PARENT 1 4
REMARK Flexibility Score: inf
ROOT
ATOM      1  C   UNL     1      18.042  13.075   3.054  1.00  0.00     0.056 C 
ENDROOT
BRANCH   1   2
ATOM      2  C   UNL     1      16.595  12.678   3.519  1.00  0.00     0.094 C 
BRANCH   2   3
ATOM      3  O   UNL     1      16.657  11.383   4.079  1.00  0.00    -0.385 OA
ATOM      4  H   UNL     1      15.757  10.967   4.009  1.00  0.00     0.211 HD
ENDBRANCH   2   3
BRANCH   2   5
ATOM      5  C   UNL     1      15.511  12.644   2.377  1.00  0.00     0.025 C 
ATOM      6  C   UNL     1      15.960  13.078   0.977  1.00  0.00     0.007 C 
ATOM      7  C   UNL     1      14.786  11.299   2.180  1.00  0.00     0.007 C 
ATOM      8  C   UNL     1      14.938  12.464   0.040  1.00  0.00     0.000 C 
ATOM      9  C   UNL     1      14.555  11.138   0.679  1.00  0.00     0.000 C 
ENDBRANCH   2   5
BRANCH   2  10
ATOM     10  C   UNL     1      16.108  13.672   4.595  1.00  0.00    -0.016 A 
ATOM     11  C   UNL     1      15.459  13.209   5.763  1.00  0.00     0.007 A 
ATOM     12  C   UNL     1      16.196  15.069   4.397  1.00  0.00     0.007 A 
ATOM     13  C   UNL     1      14.978  14.108   6.720  1.00  0.00     0.000 A 
ATOM     14  C   UNL     1      15.712  15.961   5.359  1.00  0.00     0.000 A 
ATOM     15  C   UNL     1      15.110  15.481   6.521  1.00  0.00     0.000 A 
ENDBRANCH   2  10
ENDBRANCH   1   2
BRANCH   1  16
ATOM     16  C   UNL     1      19.138  12.903   4.135  1.00  0.00     0.088 C 
BRANCH  16  17
ATOM     17  N   UNL     1      20.515  12.822   3.597  1.00  0.00    -0.303 NA
ATOM     18  C   UNL     1      21.450  12.107   4.496  1.00  0.00     0.084 C 
ATOM     19  C   UNL     1      21.053  14.111   3.126  1.00  0.00     0.084 C 
ATOM     20  C   UNL     1      22.921  12.246   4.046  1.00  0.00     0.016 C 
ATOM     21  C   UNL     1      22.273  13.876   2.217  1.00  0.00     0.016 C 
ATOM     22  C   UNL     1      23.018  12.571   2.554  1.00  0.00     0.003 C 
ENDBRANCH  16  17
ENDBRANCH   1  16
TORSDOF 6
ENDMDL
MODEL 9
REMARK VINA RESULT:    -7.535      2.637      4.465
REMARK INTER + INTRA:         -11.083
REMARK INTER:                  -9.717
REMARK INTRA:                  -1.366
REMARK UNBOUND:                -1.125
REMARK SMILES OC(CCN1CCCCC1)(c1ccccc1)C1CCCC1
REMARK SMILES IDX 3 1 2 2 1 3 17 5 18 6 21 7 19 8 20 9 11 10 12 11 16 12 13 13
REMARK SMILES IDX 15 14 14 15 4 16 5 17 6 18 10 19 7 20 9 21 8 22
REMARK H PARENT 1 4
REMARK Flexibility Score: inf
ROOT
ATOM      1  C   UNL     1      13.136  12.216  19.129  1.00  0.00     0.056 C 
ENDROOT
BRANCH   1   2
ATOM      2  C   UNL     1      14.292  11.464  18.378  1.00  0.00     0.094 C 
BRANCH   2   3
ATOM      3  O   UNL     1      14.845  10.516  19.268  1.00  0.00    -0.385 OA
ATOM      4  H   UNL     1      14.261   9.712  19.274  1.00  0.00     0.211 HD
ENDBRANCH   2   3
BRANCH   2   5
ATOM      5  C   UNL     1      15.472  12.379  17.877  1.00  0.00     0.025 C 
ATOM      6  C   UNL     1      15.153  13.860  17.641  1.00  0.00     0.007 C 
ATOM      7  C   UNL     1      16.748  12.363  18.740  1.00  0.00     0.007 C 
ATOM      8  C   UNL     1      16.499  14.554  17.692  1.00  0.00     0.000 C 
ATOM      9  C   UNL     1      17.309  13.783  18.723  1.00  0.00     0.000 C 
ENDBRANCH   2   5
BRANCH   2  10
ATOM     10  C   UNL     1      13.717  10.729  17.149  1.00  0.00    -0.016 A 
ATOM     11  C   UNL     1      12.754  11.352  16.323  1.00  0.00     0.007 A 
ATOM     12  C   UNL     1      14.049   9.382  16.878  1.00  0.00     0.007 A 
ATOM     13  C   UNL     1      12.198  10.675  15.233  1.00  0.00     0.000 A 
ATOM     14  C   UNL     1      13.487   8.711  15.786  1.00  0.00     0.000 A 
ATOM     15  C   UNL     1      12.568   9.359  14.962  1.00  0.00     0.000 A 
ENDBRANCH   2  10
ENDBRANCH   1   2
BRANCH   1  16
ATOM     16  C   UNL     1      12.306  11.330  20.091  1.00  0.00     0.088 C 
BRANCH  16  17
ATOM     17  N   UNL     1      10.886  11.178  19.705  1.00  0.00    -0.303 NA
ATOM     18  C   UNL     1      10.610   9.913  18.986  1.00  0.00     0.084 C 
ATOM     19  C   UNL     1      10.318  12.355  19.023  1.00  0.00     0.084 C 
ATOM     20  C   UNL     1       9.192   9.881  18.375  1.00  0.00     0.016 C 
ATOM     21  C   UNL     1       8.780  12.291  19.043  1.00  0.00     0.016 C 
ATOM     22  C   UNL     1       8.251  10.846  19.101  1.00  0.00     0.003 C 
ENDBRANCH  16  17
ENDBRANCH   1  16
TORSDOF 6
ENDMDL
MODEL 10
REMARK VINA RESULT:    -7.513      1.215      2.199
REMARK INTER + INTRA:         -11.054
REMARK INTER:                  -9.771
REMARK INTRA:                  -1.283
REMARK UNBOUND:                -1.125
REMARK SMILES OC(CCN1CCCCC1)(c1ccccc1)C1CCCC1
REMARK SMILES IDX 3 1 2 2 1 3 17 5 18 6 21 7 19 8 20 9 11 10 12 11 16 12 13 13
REMARK SMILES IDX 15 14 14 15 4 16 5 17 6 18 10 19 7 20 9 21 8 22
REMARK H PARENT 1 4
REMARK Flexibility Score: inf
ROOT
ATOM      1  C   UNL     1      10.603  12.789  14.473  1.00  0.00     0.056 C 
ENDROOT
BRANCH   1   2
ATOM      2  C   UNL     1      12.163  12.849  14.654  1.00  0.00     0.094 C 
BRANCH   2   3
ATOM      3  O   UNL     1      12.458  13.896  15.555  1.00  0.00    -0.385 OA
ATOM      4  H   UNL     1      13.410  14.156  15.435  1.00  0.00     0.211 HD
ENDBRANCH   2   3
BRANCH   2   5
ATOM      5  C   UNL     1      12.980  13.122  13.335  1.00  0.00     0.025 C 
ATOM      6  C   UNL     1      12.306  12.754  12.009  1.00  0.00     0.007 C 
ATOM      7  C   UNL     1      13.496  14.562  13.152  1.00  0.00     0.007 C 
ATOM      8  C   UNL     1      13.040  13.574  10.967  1.00  0.00     0.000 C 
ATOM      9  C   UNL     1      13.396  14.878  11.661  1.00  0.00     0.000 C 
ENDBRANCH   2   5
BRANCH   2  10
ATOM     10  C   UNL     1      12.665  11.515  15.247  1.00  0.00    -0.016 A 
ATOM     11  C   UNL     1      12.106  10.285  14.829  1.00  0.00     0.007 A 
ATOM     12  C   UNL     1      13.613  11.488  16.294  1.00  0.00     0.007 A 
ATOM     13  C   UNL     1      12.527   9.077  15.393  1.00  0.00     0.000 A 
ATOM     14  C   UNL     1      14.028  10.276  16.855  1.00  0.00     0.000 A 
ATOM     15  C   UNL     1      13.490   9.072  16.400  1.00  0.00     0.000 A 
ENDBRANCH   2  10
ENDBRANCH   1   2
BRANCH   1  16
ATOM     16  C   UNL     1       9.838  14.000  15.062  1.00  0.00     0.088 C 
BRANCH  16  17
ATOM     17  N   UNL     1       9.398  13.819  16.463  1.00  0.00    -0.303 NA
ATOM     18  C   UNL     1       9.367  12.399  16.885  1.00  0.00     0.084 C 
ATOM     19  C   UNL     1       8.157  14.539  16.802  1.00  0.00     0.084 C 
ATOM     20  C   UNL     1       8.675  12.207  18.252  1.00  0.00     0.016 C 
ATOM     21  C   UNL     1       8.009  14.651  18.330  1.00  0.00     0.016 C 
ATOM     22  C   UNL     1       8.703  13.496  19.076  1.00  0.00     0.003 C 
ENDBRANCH  16  17
ENDBRANCH   1  16
TORSDOF 6
ENDMDL
MODEL 11
REMARK VINA RESULT:    -7.502     11.637     15.407
REMARK INTER + INTRA:         -11.039
REMARK INTER:                 -10.039
REMARK INTRA:                  -1.001
REMARK UNBOUND:                -1.125
REMARK SMILES OC(CCN1CCCCC1)(c1ccccc1)C1CCCC1
REMARK SMILES IDX 3 1 2 2 1 3 17 5 18 6 21 7 19 8 20 9 11 10 12 11 16 12 13 13
REMARK SMILES IDX 15 14 14 15 4 16 5 17 6 18 10 19 7 20 9 21 8 22
REMARK H PARENT 1 4
REMARK Flexibility Score: inf
ROOT
ATOM      1  C   UNL     1      18.443  13.662   2.848  1.00  0.00     0.056 C 
ENDROOT
BRANCH   1   2
ATOM      2  C   UNL     1      16.923  13.953   2.578  1.00  0.00     0.094 C 
BRANCH   2   3
ATOM      3  O   UNL     1      16.698  15.332   2.789  1.00  0.00    -0.385 OA
ATOM      4  H   UNL     1      17.538  15.822   2.583  1.00  0.00     0.211 HD
ENDBRANCH   2   3
BRANCH   2   5
ATOM      5  C   UNL     1      15.916  13.168   3.500  1.00  0.00     0.025 C 
ATOM      6  C   UNL     1      16.417  11.860   4.122  1.00  0.00     0.007 C 
ATOM      7  C   UNL     1      15.304  13.972   4.663  1.00  0.00     0.007 C 
ATOM      8  C   UNL     1      15.502  11.626   5.308  1.00  0.00     0.000 C 
ATOM      9  C   UNL     1      15.178  13.012   5.844  1.00  0.00     0.000 C 
ENDBRANCH   2   5
BRANCH   2  10
ATOM     10  C   UNL     1      16.584  13.604   1.113  1.00  0.00    -0.016 A 
ATOM     11  C   UNL     1      17.301  14.194   0.047  1.00  0.00     0.007 A 
ATOM     12  C   UNL     1      15.484  12.776   0.792  1.00  0.00     0.007 A 
ATOM     13  C   UNL     1      16.970  13.913  -1.282  1.00  0.00     0.000 A 
ATOM     14  C   UNL     1      15.158  12.501  -0.540  1.00  0.00     0.000 A 
ATOM     15  C   UNL     1      15.904  13.064  -1.575  1.00  0.00     0.000 A 
ENDBRANCH   2  10
ENDBRANCH   1   2
BRANCH   1  16
ATOM     16  C   UNL     1      19.083  14.542   3.950  1.00  0.00     0.088 C 
BRANCH  16  17
ATOM     17  N   UNL     1      20.192  13.889   4.682  1.00  0.00    -0.303 NA
ATOM     18  C   UNL     1      20.978  14.832   5.510  1.00  0.00     0.084 C 
ATOM     19  C   UNL     1      21.042  13.027   3.841  1.00  0.00     0.084 C 
ATOM     20  C   UNL     1      22.270  14.192   6.064  1.00  0.00     0.016 C 
ATOM     21  C   UNL     1      21.874  12.079   4.723  1.00  0.00     0.016 C 
ATOM     22  C   UNL     1      22.157  12.667   6.118  1.00  0.00     0.003 C 
ENDBRANCH  16  17
ENDBRANCH   1  16
TORSDOF 6
ENDMDL
MODEL 12
REMARK VINA RESULT:    -7.474      2.618      4.340
REMARK INTER + INTRA:         -11.003
REMARK INTER:                  -9.668
REMARK INTRA:                  -1.335
REMARK UNBOUND:                -1.125
REMARK SMILES OC(CCN1CCCCC1)(c1ccccc1)C1CCCC1
REMARK SMILES IDX 3 1 2 2 1 3 17 5 18 6 21 7 19 8 20 9 11 10 12 11 16 12 13 13
REMARK SMILES IDX 15 14 14 15 4 16 5 17 6 18 10 19 7 20 9 21 8 22
REMARK H PARENT 1 4
REMARK Flexibility Score: inf
ROOT
ATOM      1  C   UNL     1      12.992  12.246  19.109  1.00  0.00     0.056 C 
ENDROOT
BRANCH   1   2
ATOM      2  C   UNL     1      14.140  11.531  18.309  1.00  0.00     0.094 C 
BRANCH   2   3
ATOM      3  O   UNL     1      14.791  10.636  19.187  1.00  0.00    -0.385 OA
ATOM      4  H   UNL     1      15.155   9.881  18.653  1.00  0.00     0.211 HD
ENDBRANCH   2   3
BRANCH   2   5
ATOM      5  C   UNL     1      15.240  12.489  17.716  1.00  0.00     0.025 C 
ATOM      6  C   UNL     1      14.928  13.990  17.711  1.00  0.00     0.007 C 
ATOM      7  C   UNL     1      16.645  12.361  18.333  1.00  0.00     0.007 C 
ATOM      8  C   UNL     1      16.282  14.662  17.603  1.00  0.00     0.000 C 
ATOM      9  C   UNL     1      17.235  13.769  18.381  1.00  0.00     0.000 C 
ENDBRANCH   2   5
BRANCH   2  10
ATOM     10  C   UNL     1      13.532  10.735  17.135  1.00  0.00    -0.016 A 
ATOM     11  C   UNL     1      13.992   9.432  16.832  1.00  0.00     0.007 A 
ATOM     12  C   UNL     1      12.582  11.319  16.267  1.00  0.00     0.007 A 
ATOM     13  C   UNL     1      13.474   8.724  15.743  1.00  0.00     0.000 A 
ATOM     14  C   UNL     1      12.070  10.604  15.179  1.00  0.00     0.000 A 
ATOM     15  C   UNL     1      12.511   9.307  14.922  1.00  0.00     0.000 A 
ENDBRANCH   2  10
ENDBRANCH   1   2
BRANCH   1  16
ATOM     16  C   UNL     1      12.182  11.317  20.047  1.00  0.00     0.088 C 
BRANCH  16  17
ATOM     17  N   UNL     1      10.751  11.189  19.689  1.00  0.00    -0.303 NA
ATOM     18  C   UNL     1      10.437   9.924  18.986  1.00  0.00     0.084 C 
ATOM     19  C   UNL     1      10.194  12.372  19.008  1.00  0.00     0.084 C 
ATOM     20  C   UNL     1       9.007   9.914  18.403  1.00  0.00     0.016 C 
ATOM     21  C   UNL     1       8.656  12.338  19.058  1.00  0.00     0.016 C 
ATOM     22  C   UNL     1       8.100  10.904  19.138  1.00  0.00     0.003 C 
ENDBRANCH  16  17
ENDBRANCH   1  16
TORSDOF 6
ENDMDL
MODEL 13
REMARK VINA RESULT:    -7.458      2.885      5.426
REMARK INTER + INTRA:         -10.982
REMARK INTER:                  -9.636
REMARK INTRA:                  -1.345
REMARK UNBOUND:                -1.125
REMARK SMILES OC(CCN1CCCCC1)(c1ccccc1)C1CCCC1
REMARK SMILES IDX 3 1 2 2 1 3 17 5 18 6 21 7 19 8 20 9 11 10 12 11 16 12 13 13
REMARK SMILES IDX 15 14 14 15 4 16 5 17 6 18 10 19 7 20 9 21 8 22
REMARK H PARENT 1 4
REMARK Flexibility Score: inf
ROOT
ATOM      1  C   UNL     1      10.897  11.069  18.837  1.00  0.00     0.056 C 
ENDROOT
BRANCH   1   2
ATOM      2  C   UNL     1      10.737  10.781  17.301  1.00  0.00     0.094 C 
BRANCH   2   3
ATOM      3  O   UNL     1       9.876   9.671  17.152  1.00  0.00    -0.385 OA
ATOM      4  H   UNL     1       9.167   9.727  17.848  1.00  0.00     0.211 HD
ENDBRANCH   2   3
BRANCH   2   5
ATOM      5  C   UNL     1      12.074  10.442  16.540  1.00  0.00     0.025 C 
ATOM      6  C   UNL     1      13.386  10.701  17.289  1.00  0.00     0.007 C 
ATOM      7  C   UNL     1      12.188   9.007  15.991  1.00  0.00     0.007 C 
ATOM      8  C   UNL     1      14.408   9.833  16.582  1.00  0.00     0.000 C 
ATOM      9  C   UNL     1      13.648   8.588  16.153  1.00  0.00     0.000 C 
ENDBRANCH   2   5
BRANCH   2  10
ATOM     10  C   UNL     1      10.105  12.008  16.609  1.00  0.00    -0.016 A 
ATOM     11  C   UNL     1       8.922  12.592  17.118  1.00  0.00     0.007 A 
ATOM     12  C   UNL     1      10.623  12.513  15.395  1.00  0.00     0.007 A 
ATOM     13  C   UNL     1       8.322  13.676  16.471  1.00  0.00     0.000 A 
ATOM     14  C   UNL     1      10.016  13.598  14.753  1.00  0.00     0.000 A 
ATOM     15  C   UNL     1       8.872  14.182  15.294  1.00  0.00     0.000 A 
ENDBRANCH   2  10
ENDBRANCH   1   2
BRANCH   1  16
ATOM     16  C   UNL     1      10.655   9.843  19.753  1.00  0.00     0.088 C 
BRANCH  16  17
ATOM     17  N   UNL     1      11.868   9.351  20.443  1.00  0.00    -0.303 NA
ATOM     18  C   UNL     1      12.725  10.441  20.964  1.00  0.00     0.084 C 
ATOM     19  C   UNL     1      12.629   8.347  19.679  1.00  0.00     0.084 C 
ATOM     20  C   UNL     1      14.096   9.929  21.455  1.00  0.00     0.016 C 
ATOM     21  C   UNL     1      13.597   7.593  20.609  1.00  0.00     0.016 C 
ATOM     22  C   UNL     1      14.038   8.442  21.815  1.00  0.00     0.003 C 
ENDBRANCH  16  17
ENDBRANCH   1  16
TORSDOF 6
ENDMDL
MODEL 14
REMARK VINA RESULT:    -7.227      2.320      5.471
REMARK INTER + INTRA:         -10.676
REMARK INTER:                  -8.767
REMARK INTRA:                  -1.909
REMARK UNBOUND:                -1.125
REMARK SMILES OC(CCN1CCCCC1)(c1ccccc1)C1CCCC1
REMARK SMILES IDX 3 1 2 2 1 3 17 5 18 6 21 7 19 8 20 9 11 10 12 11 16 12 13 13
REMARK SMILES IDX 15 14 14 15 4 16 5 17 6 18 10 19 7 20 9 21 8 22
REMARK H PARENT 1 4
REMARK Flexibility Score: inf
ROOT
ATOM      1  C   UNL     1      10.784  12.748  18.319  1.00  0.00     0.056 C 
ENDROOT
BRANCH   1   2
ATOM      2  C   UNL     1       9.915  12.678  17.011  1.00  0.00     0.094 C 
BRANCH   2   3
ATOM      3  O   UNL     1       9.333  11.393  16.943  1.00  0.00    -0.385 OA
ATOM      4  H   UNL     1       9.862  10.777  17.517  1.00  0.00     0.211 HD
ENDBRANCH   2   3
BRANCH   2   5
ATOM      5  C   UNL     1      10.706  12.907  15.669  1.00  0.00     0.025 C 
ATOM      6  C   UNL     1      12.039  13.657  15.765  1.00  0.00     0.007 C 
ATOM      7  C   UNL     1      11.000  11.643  14.839  1.00  0.00     0.007 C 
ATOM      8  C   UNL     1      12.785  13.275  14.502  1.00  0.00     0.000 C 
ATOM      9  C   UNL     1      12.383  11.836  14.219  1.00  0.00     0.000 C 
ENDBRANCH   2   5
BRANCH   2  10
ATOM     10  C   UNL     1       8.794  13.737  17.080  1.00  0.00    -0.016 A 
ATOM     11  C   UNL     1       8.076  14.103  15.918  1.00  0.00     0.007 A 
ATOM     12  C   UNL     1       8.528  14.447  18.273  1.00  0.00     0.007 A 
ATOM     13  C   UNL     1       7.090  15.093  15.966  1.00  0.00     0.000 A 
ATOM     14  C   UNL     1       7.540  15.437  18.313  1.00  0.00     0.000 A 
ATOM     15  C   UNL     1       6.818  15.754  17.163  1.00  0.00     0.000 A 
ENDBRANCH   2  10
ENDBRANCH   1   2
BRANCH   1  16
ATOM     16  C   UNL     1      11.191  11.371  18.898  1.00  0.00     0.088 C 
BRANCH  16  17
ATOM     17  N   UNL     1      12.158  10.622  18.065  1.00  0.00    -0.303 NA
ATOM     18  C   UNL     1      12.026   9.153  18.196  1.00  0.00     0.084 C 
ATOM     19  C   UNL     1      13.552  11.082  18.201  1.00  0.00     0.084 C 
ATOM     20  C   UNL     1      13.190   8.394  17.523  1.00  0.00     0.016 C 
ATOM     21  C   UNL     1      14.399  10.565  17.024  1.00  0.00     0.016 C 
ATOM     22  C   UNL     1      13.858   9.247  16.441  1.00  0.00     0.003 C 
ENDBRANCH  16  17
ENDBRANCH   1  16
TORSDOF 6
ENDMDL
MODEL 15
REMARK VINA RESULT:    -7.220      2.198      4.391
REMARK INTER + INTRA:         -10.667
REMARK INTER:                  -9.401
REMARK INTRA:                  -1.265
REMARK UNBOUND:                -1.125
REMARK SMILES OC(CCN1CCCCC1)(c1ccccc1)C1CCCC1
REMARK SMILES IDX 3 1 2 2 1 3 17 5 18 6 21 7 19 8 20 9 11 10 12 11 16 12 13 13
REMARK SMILES IDX 15 14 14 15 4 16 5 17 6 18 10 19 7 20 9 21 8 22
REMARK H PARENT 1 4
REMARK Flexibility Score: inf
ROOT
ATOM      1  C   UNL     1      13.202  11.317  16.389  1.00  0.00     0.056 C 
ENDROOT
BRANCH   1   2
ATOM      2  C   UNL     1      11.907  11.295  15.500  1.00  0.00     0.094 C 
BRANCH   2   3
ATOM      3  O   UNL     1      11.949  10.134  14.697  1.00  0.00    -0.385 OA
ATOM      4  H   UNL     1      12.011   9.340  15.293  1.00  0.00     0.211 HD
ENDBRANCH   2   3
BRANCH   2   5
ATOM      5  C   UNL     1      11.736  12.527  14.534  1.00  0.00     0.025 C 
ATOM      6  C   UNL     1      12.983  13.376  14.261  1.00  0.00     0.007 C 
ATOM      7  C   UNL     1      11.135  12.216  13.150  1.00  0.00     0.007 C 
ATOM      8  C   UNL     1      12.675  14.103  12.967  1.00  0.00     0.000 C 
ATOM      9  C   UNL     1      11.842  13.128  12.149  1.00  0.00     0.000 C 
ENDBRANCH   2   5
BRANCH   2  10
ATOM     10  C   UNL     1      10.659  11.237  16.408  1.00  0.00    -0.016 A 
ATOM     11  C   UNL     1       9.872  12.391  16.625  1.00  0.00     0.007 A 
ATOM     12  C   UNL     1      10.331  10.067  17.130  1.00  0.00     0.007 A 
ATOM     13  C   UNL     1       8.766  12.354  17.480  1.00  0.00     0.000 A 
ATOM     14  C   UNL     1       9.224  10.038  17.984  1.00  0.00     0.000 A 
ATOM     15  C   UNL     1       8.439  11.178  18.153  1.00  0.00     0.000 A 
ENDBRANCH   2  10
ENDBRANCH   1   2
BRANCH   1  16
ATOM     16  C   UNL     1      13.973   9.975  16.441  1.00  0.00     0.088 C 
BRANCH  16  17
ATOM     17  N   UNL     1      13.980   9.329  17.773  1.00  0.00    -0.303 NA
ATOM     18  C   UNL     1      13.212   8.062  17.810  1.00  0.00     0.084 C 
ATOM     19  C   UNL     1      13.634  10.235  18.883  1.00  0.00     0.084 C 
ATOM     20  C   UNL     1      13.019   7.533  19.248  1.00  0.00     0.016 C 
ATOM     21  C   UNL     1      14.071   9.621  20.225  1.00  0.00     0.016 C 
ATOM     22  C   UNL     1      14.092   8.082  20.192  1.00  0.00     0.003 C 
ENDBRANCH  16  17
ENDBRANCH   1  16
TORSDOF 6
ENDMDL
