MODEL 1
REMARK VINA RESULT:    -1.247      0.000      0.000
REMARK INTER + INTRA:          -1.247
REMARK INTER:                  -1.247
REMARK INTRA:                   0.000
REMARK UNBOUND:                 0.000
REMARK SMILES [Zn]
REMARK SMILES IDX 1 1
REMARK H PARENT
REMARK Flexibility Score: inf
ROOT
ATOM      1  Zn  UNL     1      17.240   0.266  14.528  1.00  0.00     0.000 Zn
ENDROOT
TORSDOF 0
ENDMDL
MODEL 2
REMARK VINA RESULT:    -1.233     15.471     15.471
REMARK INTER + INTRA:          -1.233
REMARK INTER:                  -1.233
REMARK INTRA:                   0.000
REMARK UNBOUND:                 0.000
REMARK SMILES [Zn]
REMARK SMILES IDX 1 1
REMARK H PARENT
REMARK Flexibility Score: inf
ROOT
ATOM      1  Zn  UNL     1       9.257   6.462  26.242  1.00  0.00     0.000 Zn
ENDROOT
TORSDOF 0
ENDMDL
MODEL 3
REMARK VINA RESULT:    -1.142      9.555      9.555
REMARK INTER + INTRA:          -1.142
REMARK INTER:                  -1.142
REMARK INTRA:                   0.000
REMARK UNBOUND:                 0.000
REMARK SMILES [Zn]
REMARK SMILES IDX 1 1
REMARK H PARENT
REMARK Flexibility Score: inf
ROOT
ATOM      1  Zn  UNL     1      21.765   8.668  15.004  1.00  0.00     0.000 Zn
ENDROOT
TORSDOF 0
ENDMDL
MODEL 4
REMARK VINA RESULT:    -1.123     17.271     17.271
REMARK INTER + INTRA:          -1.123
REMARK INTER:                  -1.123
REMARK INTRA:                   0.000
REMARK UNBOUND:                 0.000
REMARK SMILES [Zn]
REMARK SMILES IDX 1 1
REMARK H PARENT
REMARK Flexibility Score: inf
ROOT
ATOM      1  Zn  UNL     1       6.334  10.128   5.467  1.00  0.00     0.000 Zn
ENDROOT
TORSDOF 0
ENDMDL
MODEL 5
REMARK VINA RESULT:    -1.120     13.387     13.387
REMARK INTER + INTRA:          -1.120
REMARK INTER:                  -1.120
REMARK INTRA:                   0.000
REMARK UNBOUND:                 0.000
REMARK SMILES [Zn]
REMARK SMILES IDX 1 1
REMARK H PARENT
REMARK Flexibility Score: inf
ROOT
ATOM      1  Zn  UNL     1       5.518   3.012  20.380  1.00  0.00     0.000 Zn
ENDROOT
TORSDOF 0
ENDMDL
MODEL 6
REMARK VINA RESULT:    -1.120     21.054     21.054
REMARK INTER + INTRA:          -1.120
REMARK INTER:                  -1.120
REMARK INTRA:                   0.000
REMARK UNBOUND:                 0.000
REMARK SMILES [Zn]
REMARK SMILES IDX 1 1
REMARK H PARENT
REMARK Flexibility Score: inf
ROOT
ATOM      1  Zn  UNL     1       2.326   9.544  26.136  1.00  0.00     0.000 Zn
ENDROOT
TORSDOF 0
ENDMDL
MODEL 7
REMARK VINA RESULT:    -1.108     14.221     14.221
REMARK INTER + INTRA:          -1.108
REMARK INTER:                  -1.108
REMARK INTRA:                   0.000
REMARK UNBOUND:                 0.000
REMARK SMILES [Zn]
REMARK SMILES IDX 1 1
REMARK H PARENT
REMARK Flexibility Score: inf
ROOT
ATOM      1  Zn  UNL     1       9.507  -0.470   2.616  1.00  0.00     0.000 Zn
ENDROOT
TORSDOF 0
ENDMDL
MODEL 8
REMARK VINA RESULT:    -1.073     14.217     14.217
REMARK INTER + INTRA:          -1.073
REMARK INTER:                  -1.073
REMARK INTRA:                   0.000
REMARK UNBOUND:                 0.000
REMARK SMILES [Zn]
REMARK SMILES IDX 1 1
REMARK H PARENT
REMARK Flexibility Score: inf
ROOT
ATOM      1  Zn  UNL     1       6.853   0.743  24.223  1.00  0.00     0.000 Zn
ENDROOT
TORSDOF 0
ENDMDL
MODEL 9
REMARK VINA RESULT:    -1.070     10.578     10.578
REMARK INTER + INTRA:          -1.070
REMARK INTER:                  -1.070
REMARK INTRA:                   0.000
REMARK UNBOUND:                 0.000
REMARK SMILES [Zn]
REMARK SMILES IDX 1 1
REMARK H PARENT
REMARK Flexibility Score: inf
ROOT
ATOM      1  Zn  UNL     1      18.448  10.352  11.577  1.00  0.00     0.000 Zn
ENDROOT
TORSDOF 0
ENDMDL
MODEL 10
REMARK VINA RESULT:    -1.070     16.579     16.579
REMARK INTER + INTRA:          -1.070
REMARK INTER:                  -1.070
REMARK INTRA:                   0.000
REMARK UNBOUND:                 0.000
REMARK SMILES [Zn]
REMARK SMILES IDX 1 1
REMARK H PARENT
REMARK Flexibility Score: inf
ROOT
ATOM      1  Zn  UNL     1       1.627   0.347  20.101  1.00  0.00     0.000 Zn
ENDROOT
TORSDOF 0
ENDMDL
MODEL 11
REMARK VINA RESULT:    -1.035      4.731      4.731
REMARK INTER + INTRA:          -1.035
REMARK INTER:                  -1.035
REMARK INTRA:                   0.000
REMARK UNBOUND:                 0.000
REMARK SMILES [Zn]
REMARK SMILES IDX 1 1
REMARK H PARENT
REMARK Flexibility Score: inf
ROOT
ATOM      1  Zn  UNL     1      15.910  -0.378  19.022  1.00  0.00     0.000 Zn
ENDROOT
TORSDOF 0
ENDMDL
MODEL 12
REMARK VINA RESULT:    -1.031     14.028     14.028
REMARK INTER + INTRA:          -1.031
REMARK INTER:                  -1.031
REMARK INTRA:                   0.000
REMARK UNBOUND:                 0.000
REMARK SMILES [Zn]
REMARK SMILES IDX 1 1
REMARK H PARENT
REMARK Flexibility Score: inf
ROOT
ATOM      1  Zn  UNL     1       4.064   4.684  16.437  1.00  0.00     0.000 Zn
ENDROOT
TORSDOF 0
ENDMDL
MODEL 13
REMARK VINA RESULT:    -1.005     15.236     15.236
REMARK INTER + INTRA:          -1.005
REMARK INTER:                  -1.005
REMARK INTRA:                   0.000
REMARK UNBOUND:                 0.000
REMARK SMILES [Zn]
REMARK SMILES IDX 1 1
REMARK H PARENT
REMARK Flexibility Score: inf
ROOT
ATOM      1  Zn  UNL     1       6.890   8.608  21.973  1.00  0.00     0.000 Zn
ENDROOT
TORSDOF 0
ENDMDL
MODEL 14
REMARK VINA RESULT:    -0.953     21.628     21.628
REMARK INTER + INTRA:          -0.953
REMARK INTER:                  -0.953
REMARK INTRA:                   0.000
REMARK UNBOUND:                 0.000
REMARK SMILES [Zn]
REMARK SMILES IDX 1 1
REMARK H PARENT
REMARK Flexibility Score: inf
ROOT
ATOM      1  Zn  UNL     1      -2.181   9.158  17.920  1.00  0.00     0.000 Zn
ENDROOT
TORSDOF 0
ENDMDL
MODEL 15
REMARK VINA RESULT:    -0.941      7.839      7.839
REMARK INTER + INTRA:          -0.941
REMARK INTER:                  -0.941
REMARK INTRA:                   0.000
REMARK UNBOUND:                 0.000
REMARK SMILES [Zn]
REMARK SMILES IDX 1 1
REMARK H PARENT
REMARK Flexibility Score: inf
ROOT
ATOM      1  Zn  UNL     1      14.319   7.254  16.548  1.00  0.00     0.000 Zn
ENDROOT
TORSDOF 0
ENDMDL
