MODEL 1
REMARK VINA RESULT:    -8.128      0.000      0.000
REMARK INTER + INTRA:         -13.517
REMARK INTER:                 -11.217
REMARK INTRA:                  -2.301
REMARK UNBOUND:                -2.301
REMARK SMILES OC(CCCN1CCCCC1)(c1ccccc1)c1ccccc1
REMARK SMILES IDX 3 1 2 2 1 3 12 5 13 6 17 7 14 8 16 9 15 10 18 11 19 12 23 13
REMARK SMILES IDX 20 14 22 15 21 16 4 17 5 18 6 19 7 20 11 21 8 22 10 23 9 24
REMARK H PARENT 1 4
REMARK Flexibility Score: inf
ROOT
ATOM      1  C   UNL     1      10.456  12.819  15.505  1.00  0.00     0.046 C 
ENDROOT
BRANCH   1   2
ATOM      2  C   UNL     1      11.926  12.836  14.989  1.00  0.00     0.115 C 
BRANCH   2   3
ATOM      3  O   UNL     1      12.559  13.958  15.565  1.00  0.00    -0.380 OA
ATOM      4  H   UNL     1      13.421  14.108  15.091  1.00  0.00     0.212 HD
ENDBRANCH   2   3
BRANCH   2   5
ATOM      5  C   UNL     1      12.003  12.983  13.450  1.00  0.00    -0.012 A 
ATOM      6  C   UNL     1      13.233  13.337  12.848  1.00  0.00     0.007 A 
ATOM      7  C   UNL     1      10.869  12.853  12.610  1.00  0.00     0.007 A 
ATOM      8  C   UNL     1      13.341  13.475  11.461  1.00  0.00     0.000 A 
ATOM      9  C   UNL     1      10.986  13.003  11.224  1.00  0.00     0.000 A 
ATOM     10  C   UNL     1      12.222  13.302  10.651  1.00  0.00     0.000 A 
ENDBRANCH   2   5
BRANCH   2  11
ATOM     11  C   UNL     1      12.609  11.529  15.428  1.00  0.00    -0.012 A 
ATOM     12  C   UNL     1      12.170  10.294  14.906  1.00  0.00     0.007 A 
ATOM     13  C   UNL     1      13.615  11.519  16.420  1.00  0.00     0.007 A 
ATOM     14  C   UNL     1      12.750   9.095  15.329  1.00  0.00     0.000 A 
ATOM     15  C   UNL     1      14.187  10.315  16.842  1.00  0.00     0.000 A 
ATOM     16  C   UNL     1      13.760   9.105  16.294  1.00  0.00     0.000 A 
ENDBRANCH   2  11
ENDBRANCH   1   2
BRANCH   1  17
ATOM     17  C   UNL     1      10.126  13.938  16.513  1.00  0.00     0.019 C 
BRANCH  17  18
ATOM     18  C   UNL     1      10.013  13.372  17.945  1.00  0.00     0.084 C 
BRANCH  18  19
ATOM     19  N   UNL     1      10.088  11.895  18.024  1.00  0.00    -0.303 NA
ATOM     20  C   UNL     1       8.797  11.250  18.322  1.00  0.00     0.084 C 
ATOM     21  C   UNL     1      11.182  11.420  18.906  1.00  0.00     0.084 C 
ATOM     22  C   UNL     1       8.866   9.745  17.994  1.00  0.00     0.016 C 
ATOM     23  C   UNL     1      11.088   9.907  19.196  1.00  0.00     0.016 C 
ATOM     24  C   UNL     1      10.292   9.181  18.107  1.00  0.00     0.003 C 
ENDBRANCH  18  19
ENDBRANCH  17  18
ENDBRANCH   1  17
TORSDOF 7
ENDMDL
MODEL 2
REMARK VINA RESULT:    -8.087      0.084      1.013
REMARK INTER + INTRA:         -13.461
REMARK INTER:                 -11.147
REMARK INTRA:                  -2.314
REMARK UNBOUND:                -2.301
REMARK SMILES OC(CCCN1CCCCC1)(c1ccccc1)c1ccccc1
REMARK SMILES IDX 3 1 2 2 1 3 12 5 13 6 17 7 14 8 16 9 15 10 18 11 19 12 23 13
REMARK SMILES IDX 20 14 22 15 21 16 4 17 5 18 6 19 7 20 11 21 8 22 10 23 9 24
REMARK H PARENT 1 4
REMARK Flexibility Score: inf
ROOT
ATOM      1  C   UNL     1      10.466  12.926  15.583  1.00  0.00     0.046 C 
ENDROOT
BRANCH   1   2
ATOM      2  C   UNL     1      11.925  12.851  15.044  1.00  0.00     0.115 C 
BRANCH   2   3
ATOM      3  O   UNL     1      12.634  13.938  15.600  1.00  0.00    -0.380 OA
ATOM      4  H   UNL     1      13.440  14.103  15.041  1.00  0.00     0.212 HD
ENDBRANCH   2   3
BRANCH   2   5
ATOM      5  C   UNL     1      11.986  12.981  13.503  1.00  0.00    -0.012 A 
ATOM      6  C   UNL     1      13.216  13.298  12.881  1.00  0.00     0.007 A 
ATOM      7  C   UNL     1      10.838  12.871  12.679  1.00  0.00     0.007 A 
ATOM      8  C   UNL     1      13.310  13.420  11.492  1.00  0.00     0.000 A 
ATOM      9  C   UNL     1      10.940  13.004  11.290  1.00  0.00     0.000 A 
ATOM     10  C   UNL     1      12.176  13.266  10.698  1.00  0.00     0.000 A 
ENDBRANCH   2   5
BRANCH   2  11
ATOM     11  C   UNL     1      12.536  11.510  15.484  1.00  0.00    -0.012 A 
ATOM     12  C   UNL     1      13.590  11.489  16.423  1.00  0.00     0.007 A 
ATOM     13  C   UNL     1      12.131  10.287  14.903  1.00  0.00     0.007 A 
ATOM     14  C   UNL     1      14.186  10.282  16.799  1.00  0.00     0.000 A 
ATOM     15  C   UNL     1      12.736   9.084  15.280  1.00  0.00     0.000 A 
ATOM     16  C   UNL     1      13.757   9.080  16.231  1.00  0.00     0.000 A 
ENDBRANCH   2  11
ENDBRANCH   1   2
BRANCH   1  17
ATOM     17  C   UNL     1      10.234  14.032  16.633  1.00  0.00     0.019 C 
BRANCH  17  18
ATOM     18  C   UNL     1       9.943  13.420  18.020  1.00  0.00     0.084 C 
BRANCH  18  19
ATOM     19  N   UNL     1      10.034  11.943  18.066  1.00  0.00    -0.303 NA
ATOM     20  C   UNL     1       8.744  11.275  18.309  1.00  0.00     0.084 C 
ATOM     21  C   UNL     1      11.107  11.460  18.970  1.00  0.00     0.084 C 
ATOM     22  C   UNL     1       8.842   9.780  17.948  1.00  0.00     0.016 C 
ATOM     23  C   UNL     1      11.025   9.939  19.221  1.00  0.00     0.016 C 
ATOM     24  C   UNL     1      10.272   9.231  18.091  1.00  0.00     0.003 C 
ENDBRANCH  18  19
ENDBRANCH  17  18
ENDBRANCH   1  17
TORSDOF 7
ENDMDL
MODEL 3
REMARK VINA RESULT:    -7.991      0.774      1.597
REMARK INTER + INTRA:         -13.328
REMARK INTER:                 -11.285
REMARK INTRA:                  -2.043
REMARK UNBOUND:                -2.301
REMARK SMILES OC(CCCN1CCCCC1)(c1ccccc1)c1ccccc1
REMARK SMILES IDX 3 1 2 2 1 3 12 5 13 6 17 7 14 8 16 9 15 10 18 11 19 12 23 13
REMARK SMILES IDX 20 14 22 15 21 16 4 17 5 18 6 19 7 20 11 21 8 22 10 23 9 24
REMARK H PARENT 1 4
REMARK Flexibility Score: inf
ROOT
ATOM      1  C   UNL     1      10.377  12.795  15.565  1.00  0.00     0.046 C 
ENDROOT
BRANCH   1   2
ATOM      2  C   UNL     1      11.842  12.829  15.038  1.00  0.00     0.115 C 
BRANCH   2   3
ATOM      3  O   UNL     1      12.461  13.969  15.594  1.00  0.00    -0.380 OA
ATOM      4  H   UNL     1      13.261  13.671  16.105  1.00  0.00     0.212 HD
ENDBRANCH   2   3
BRANCH   2   5
ATOM      5  C   UNL     1      11.906  12.957  13.497  1.00  0.00    -0.012 A 
ATOM      6  C   UNL     1      13.148  13.214  12.873  1.00  0.00     0.007 A 
ATOM      7  C   UNL     1      10.752  12.905  12.675  1.00  0.00     0.007 A 
ATOM      8  C   UNL     1      13.245  13.332  11.483  1.00  0.00     0.000 A 
ATOM      9  C   UNL     1      10.857  13.034  11.286  1.00  0.00     0.000 A 
ATOM     10  C   UNL     1      12.104  13.235  10.691  1.00  0.00     0.000 A 
ENDBRANCH   2   5
BRANCH   2  11
ATOM     11  C   UNL     1      12.550  11.540  15.489  1.00  0.00    -0.012 A 
ATOM     12  C   UNL     1      13.609  11.607  16.420  1.00  0.00     0.007 A 
ATOM     13  C   UNL     1      12.229  10.285  14.926  1.00  0.00     0.007 A 
ATOM     14  C   UNL     1      14.292  10.450  16.806  1.00  0.00     0.000 A 
ATOM     15  C   UNL     1      12.920   9.133  15.312  1.00  0.00     0.000 A 
ATOM     16  C   UNL     1      13.946   9.213  16.255  1.00  0.00     0.000 A 
ENDBRANCH   2  11
ENDBRANCH   1   2
BRANCH   1  17
ATOM     17  C   UNL     1      10.258  12.713  17.100  1.00  0.00     0.019 C 
BRANCH  17  18
ATOM     18  C   UNL     1       9.689  11.346  17.535  1.00  0.00     0.084 C 
BRANCH  18  19
ATOM     19  N   UNL     1      10.661  10.476  18.237  1.00  0.00    -0.303 NA
ATOM     20  C   UNL     1      10.275   9.055  18.265  1.00  0.00     0.084 C 
ATOM     21  C   UNL     1      11.034  10.994  19.577  1.00  0.00     0.084 C 
ATOM     22  C   UNL     1      11.488   8.181  18.638  1.00  0.00     0.016 C 
ATOM     23  C   UNL     1      11.828   9.961  20.406  1.00  0.00     0.016 C 
ATOM     24  C   UNL     1      12.515   8.934  19.500  1.00  0.00     0.003 C 
ENDBRANCH  18  19
ENDBRANCH  17  18
ENDBRANCH   1  17
TORSDOF 7
ENDMDL
MODEL 4
REMARK VINA RESULT:    -7.945      1.211      4.138
REMARK INTER + INTRA:         -13.264
REMARK INTER:                 -11.005
REMARK INTRA:                  -2.259
REMARK UNBOUND:                -2.301
REMARK SMILES OC(CCCN1CCCCC1)(c1ccccc1)c1ccccc1
REMARK SMILES IDX 3 1 2 2 1 3 12 5 13 6 17 7 14 8 16 9 15 10 18 11 19 12 23 13
REMARK SMILES IDX 20 14 22 15 21 16 4 17 5 18 6 19 7 20 11 21 8 22 10 23 9 24
REMARK H PARENT 1 4
REMARK Flexibility Score: inf
ROOT
ATOM      1  C   UNL     1      11.104  13.184  15.845  1.00  0.00     0.046 C 
ENDROOT
BRANCH   1   2
ATOM      2  C   UNL     1      11.792  12.252  14.802  1.00  0.00     0.115 C 
BRANCH   2   3
ATOM      3  O   UNL     1      10.768  11.588  14.094  1.00  0.00    -0.380 OA
ATOM      4  H   UNL     1      10.080  12.259  13.839  1.00  0.00     0.212 HD
ENDBRANCH   2   3
BRANCH   2   5
ATOM      5  C   UNL     1      12.681  11.179  15.475  1.00  0.00    -0.012 A 
ATOM      6  C   UNL     1      12.544   9.825  15.091  1.00  0.00     0.007 A 
ATOM      7  C   UNL     1      13.584  11.480  16.524  1.00  0.00     0.007 A 
ATOM      8  C   UNL     1      13.332   8.828  15.674  1.00  0.00     0.000 A 
ATOM      9  C   UNL     1      14.362  10.475  17.108  1.00  0.00     0.000 A 
ATOM     10  C   UNL     1      14.244   9.153  16.675  1.00  0.00     0.000 A 
ENDBRANCH   2   5
BRANCH   2  11
ATOM     11  C   UNL     1      12.640  13.124  13.860  1.00  0.00    -0.012 A 
ATOM     12  C   UNL     1      13.209  14.327  14.332  1.00  0.00     0.007 A 
ATOM     13  C   UNL     1      12.794  12.800  12.494  1.00  0.00     0.007 A 
ATOM     14  C   UNL     1      13.943  15.151  13.477  1.00  0.00     0.000 A 
ATOM     15  C   UNL     1      13.526  13.633  11.642  1.00  0.00     0.000 A 
ATOM     16  C   UNL     1      14.105  14.804  12.133  1.00  0.00     0.000 A 
ENDBRANCH   2  11
ENDBRANCH   1   2
BRANCH   1  17
ATOM     17  C   UNL     1       9.563  13.117  15.834  1.00  0.00     0.019 C 
BRANCH  17  18
ATOM     18  C   UNL     1       9.026  12.602  17.186  1.00  0.00     0.084 C 
BRANCH  18  19
ATOM     19  N   UNL     1       9.829  11.512  17.786  1.00  0.00    -0.303 NA
ATOM     20  C   UNL     1       9.200  10.184  17.682  1.00  0.00     0.084 C 
ATOM     21  C   UNL     1      10.286  11.823  19.163  1.00  0.00     0.084 C 
ATOM     22  C   UNL     1      10.241   9.079  17.951  1.00  0.00     0.016 C 
ATOM     23  C   UNL     1      10.885  10.592  19.876  1.00  0.00     0.016 C 
ATOM     24  C   UNL     1      11.383   9.554  18.865  1.00  0.00     0.003 C 
ENDBRANCH  18  19
ENDBRANCH  17  18
ENDBRANCH   1  17
TORSDOF 7
ENDMDL
MODEL 5
REMARK VINA RESULT:    -7.814      0.985      3.906
REMARK INTER + INTRA:         -13.083
REMARK INTER:                 -10.817
REMARK INTRA:                  -2.266
REMARK UNBOUND:                -2.301
REMARK SMILES OC(CCCN1CCCCC1)(c1ccccc1)c1ccccc1
REMARK SMILES IDX 3 1 2 2 1 3 12 5 13 6 17 7 14 8 16 9 15 10 18 11 19 12 23 13
REMARK SMILES IDX 20 14 22 15 21 16 4 17 5 18 6 19 7 20 11 21 8 22 10 23 9 24
REMARK H PARENT 1 4
REMARK Flexibility Score: inf
ROOT
ATOM      1  C   UNL     1      12.014  13.667  16.459  1.00  0.00     0.046 C 
ENDROOT
BRANCH   1   2
ATOM      2  C   UNL     1      11.922  12.600  15.327  1.00  0.00     0.115 C 
BRANCH   2   3
ATOM      3  O   UNL     1      10.557  12.288  15.154  1.00  0.00    -0.380 OA
ATOM      4  H   UNL     1      10.025  12.864  15.767  1.00  0.00     0.212 HD
ENDBRANCH   2   3
BRANCH   2   5
ATOM      5  C   UNL     1      12.667  11.294  15.694  1.00  0.00    -0.012 A 
ATOM      6  C   UNL     1      12.256  10.074  15.109  1.00  0.00     0.007 A 
ATOM      7  C   UNL     1      13.704  11.247  16.658  1.00  0.00     0.007 A 
ATOM      8  C   UNL     1      12.906   8.875  15.414  1.00  0.00     0.000 A 
ATOM      9  C   UNL     1      14.343  10.042  16.964  1.00  0.00     0.000 A 
ATOM     10  C   UNL     1      13.952   8.859  16.334  1.00  0.00     0.000 A 
ENDBRANCH   2   5
BRANCH   2  11
ATOM     11  C   UNL     1      12.518  13.203  14.043  1.00  0.00    -0.012 A 
ATOM     12  C   UNL     1      12.389  12.517  12.816  1.00  0.00     0.007 A 
ATOM     13  C   UNL     1      13.279  14.393  14.071  1.00  0.00     0.007 A 
ATOM     14  C   UNL     1      12.964  13.030  11.650  1.00  0.00     0.000 A 
ATOM     15  C   UNL     1      13.855  14.897  12.901  1.00  0.00     0.000 A 
ATOM     16  C   UNL     1      13.694  14.220  11.691  1.00  0.00     0.000 A 
ENDBRANCH   2  11
ENDBRANCH   1   2
BRANCH   1  17
ATOM     17  C   UNL     1      10.649  14.105  17.028  1.00  0.00     0.019 C 
BRANCH  17  18
ATOM     18  C   UNL     1      10.379  13.429  18.389  1.00  0.00     0.084 C 
BRANCH  18  19
ATOM     19  N   UNL     1      10.370  11.949  18.344  1.00  0.00    -0.303 NA
ATOM     20  C   UNL     1       9.020  11.364  18.264  1.00  0.00     0.084 C 
ATOM     21  C   UNL     1      11.197  11.335  19.412  1.00  0.00     0.084 C 
ATOM     22  C   UNL     1       9.103   9.891  17.821  1.00  0.00     0.016 C 
ATOM     23  C   UNL     1      10.972   9.812  19.527  1.00  0.00     0.016 C 
ATOM     24  C   UNL     1      10.435   9.230  18.216  1.00  0.00     0.003 C 
ENDBRANCH  18  19
ENDBRANCH  17  18
ENDBRANCH   1  17
TORSDOF 7
ENDMDL
MODEL 6
REMARK VINA RESULT:    -7.546     10.695     14.317
REMARK INTER + INTRA:         -12.713
REMARK INTER:                 -11.517
REMARK INTRA:                  -1.197
REMARK UNBOUND:                -2.301
REMARK SMILES OC(CCCN1CCCCC1)(c1ccccc1)c1ccccc1
REMARK SMILES IDX 3 1 2 2 1 3 12 5 13 6 17 7 14 8 16 9 15 10 18 11 19 12 23 13
REMARK SMILES IDX 20 14 22 15 21 16 4 17 5 18 6 19 7 20 11 21 8 22 10 23 9 24
REMARK H PARENT 1 4
REMARK Flexibility Score: inf
ROOT
ATOM      1  C   UNL     1      17.974  13.761   3.550  1.00  0.00     0.046 C 
ENDROOT
BRANCH   1   2
ATOM      2  C   UNL     1      16.645  12.973   3.744  1.00  0.00     0.115 C 
BRANCH   2   3
ATOM      3  O   UNL     1      16.969  11.754   4.377  1.00  0.00    -0.380 OA
ATOM      4  H   UNL     1      17.699  11.927   5.030  1.00  0.00     0.212 HD
ENDBRANCH   2   3
BRANCH   2   5
ATOM      5  C   UNL     1      15.960  12.643   2.396  1.00  0.00    -0.012 A 
ATOM      6  C   UNL     1      15.019  11.588   2.337  1.00  0.00     0.007 A 
ATOM      7  C   UNL     1      16.289  13.303   1.186  1.00  0.00     0.007 A 
ATOM      8  C   UNL     1      14.378  11.263   1.138  1.00  0.00     0.000 A 
ATOM      9  C   UNL     1      15.649  12.965  -0.010  1.00  0.00     0.000 A 
ATOM     10  C   UNL     1      14.686  11.954  -0.031  1.00  0.00     0.000 A 
ENDBRANCH   2   5
BRANCH   2  11
ATOM     11  C   UNL     1      15.704  13.819   4.620  1.00  0.00    -0.012 A 
ATOM     12  C   UNL     1      15.112  14.987   4.094  1.00  0.00     0.007 A 
ATOM     13  C   UNL     1      15.483  13.507   5.980  1.00  0.00     0.007 A 
ATOM     14  C   UNL     1      14.291  15.790   4.891  1.00  0.00     0.000 A 
ATOM     15  C   UNL     1      14.665  14.318   6.772  1.00  0.00     0.000 A 
ATOM     16  C   UNL     1      14.065  15.454   6.228  1.00  0.00     0.000 A 
ENDBRANCH   2  11
ENDBRANCH   1   2
BRANCH   1  17
ATOM     17  C   UNL     1      19.126  13.296   4.464  1.00  0.00     0.019 C 
BRANCH  17  18
ATOM     18  C   UNL     1      20.230  12.596   3.643  1.00  0.00     0.084 C 
BRANCH  18  19
ATOM     19  N   UNL     1      21.470  12.316   4.403  1.00  0.00    -0.303 NA
ATOM     20  C   UNL     1      21.593  13.095   5.648  1.00  0.00     0.084 C 
ATOM     21  C   UNL     1      22.690  12.386   3.562  1.00  0.00     0.084 C 
ATOM     22  C   UNL     1      22.668  12.475   6.561  1.00  0.00     0.016 C 
ATOM     23  C   UNL     1      23.985  12.361   4.402  1.00  0.00     0.016 C 
ATOM     24  C   UNL     1      23.747  11.715   5.770  1.00  0.00     0.003 C 
ENDBRANCH  18  19
ENDBRANCH  17  18
ENDBRANCH   1  17
TORSDOF 7
ENDMDL
MODEL 7
REMARK VINA RESULT:    -7.519      2.804      4.810
REMARK INTER + INTRA:         -12.676
REMARK INTER:                 -10.485
REMARK INTRA:                  -2.191
REMARK UNBOUND:                -2.301
REMARK SMILES OC(CCCN1CCCCC1)(c1ccccc1)c1ccccc1
REMARK SMILES IDX 3 1 2 2 1 3 12 5 13 6 17 7 14 8 16 9 15 10 18 11 19 12 23 13
REMARK SMILES IDX 20 14 22 15 21 16 4 17 5 18 6 19 7 20 11 21 8 22 10 23 9 24
REMARK H PARENT 1 4
REMARK Flexibility Score: inf
ROOT
ATOM      1  C   UNL     1      14.722  11.046  19.686  1.00  0.00     0.046 C 
ENDROOT
BRANCH   1   2
ATOM      2  C   UNL     1      14.291  11.902  18.457  1.00  0.00     0.115 C 
BRANCH   2   3
ATOM      3  O   UNL     1      13.205  12.705  18.867  1.00  0.00    -0.380 OA
ATOM      4  H   UNL     1      13.522  13.646  18.936  1.00  0.00     0.212 HD
ENDBRANCH   2   3
BRANCH   2   5
ATOM      5  C   UNL     1      13.816  11.026  17.273  1.00  0.00    -0.012 A 
ATOM      6  C   UNL     1      14.346   9.725  17.117  1.00  0.00     0.007 A 
ATOM      7  C   UNL     1      12.923  11.499  16.280  1.00  0.00     0.007 A 
ATOM      8  C   UNL     1      13.939   8.904  16.062  1.00  0.00     0.000 A 
ATOM      9  C   UNL     1      12.528  10.674  15.223  1.00  0.00     0.000 A 
ATOM     10  C   UNL     1      13.026   9.374  15.121  1.00  0.00     0.000 A 
ENDBRANCH   2   5
BRANCH   2  11
ATOM     11  C   UNL     1      15.488  12.768  18.026  1.00  0.00    -0.012 A 
ATOM     12  C   UNL     1      16.803  12.353  18.327  1.00  0.00     0.007 A 
ATOM     13  C   UNL     1      15.305  14.026  17.411  1.00  0.00     0.007 A 
ATOM     14  C   UNL     1      17.897  13.150  17.982  1.00  0.00     0.000 A 
ATOM     15  C   UNL     1      16.405  14.821  17.074  1.00  0.00     0.000 A 
ATOM     16  C   UNL     1      17.700  14.381  17.353  1.00  0.00     0.000 A 
ENDBRANCH   2  11
ENDBRANCH   1   2
BRANCH   1  17
ATOM     17  C   UNL     1      13.738  11.100  20.872  1.00  0.00     0.019 C 
BRANCH  17  18
ATOM     18  C   UNL     1      12.825   9.855  20.885  1.00  0.00     0.084 C 
BRANCH  18  19
ATOM     19  N   UNL     1      11.825   9.823  19.793  1.00  0.00    -0.303 NA
ATOM     20  C   UNL     1      10.469  10.213  20.217  1.00  0.00     0.084 C 
ATOM     21  C   UNL     1      11.842   8.547  19.034  1.00  0.00     0.084 C 
ATOM     22  C   UNL     1       9.600  10.541  18.987  1.00  0.00     0.016 C 
ATOM     23  C   UNL     1      10.632   8.412  18.084  1.00  0.00     0.016 C 
ATOM     24  C   UNL     1      10.052   9.784  17.726  1.00  0.00     0.003 C 
ENDBRANCH  18  19
ENDBRANCH  17  18
ENDBRANCH   1  17
TORSDOF 7
ENDMDL
MODEL 8
REMARK VINA RESULT:    -7.488     10.684     14.271
REMARK INTER + INTRA:         -12.634
REMARK INTER:                 -11.451
REMARK INTRA:                  -1.183
REMARK UNBOUND:                -2.301
REMARK SMILES OC(CCCN1CCCCC1)(c1ccccc1)c1ccccc1
REMARK SMILES IDX 3 1 2 2 1 3 12 5 13 6 17 7 14 8 16 9 15 10 18 11 19 12 23 13
REMARK SMILES IDX 20 14 22 15 21 16 4 17 5 18 6 19 7 20 11 21 8 22 10 23 9 24
REMARK H PARENT 1 4
REMARK Flexibility Score: inf
ROOT
ATOM      1  C   UNL     1      18.001  13.770   3.545  1.00  0.00     0.046 C 
ENDROOT
BRANCH   1   2
ATOM      2  C   UNL     1      16.674  12.979   3.745  1.00  0.00     0.115 C 
BRANCH   2   3
ATOM      3  O   UNL     1      17.003  11.763   4.380  1.00  0.00    -0.380 OA
ATOM      4  H   UNL     1      17.944  11.822   4.699  1.00  0.00     0.212 HD
ENDBRANCH   2   3
BRANCH   2   5
ATOM      5  C   UNL     1      15.984  12.644   2.401  1.00  0.00    -0.012 A 
ATOM      6  C   UNL     1      15.058  11.578   2.344  1.00  0.00     0.007 A 
ATOM      7  C   UNL     1      16.297  13.313   1.192  1.00  0.00     0.007 A 
ATOM      8  C   UNL     1      14.413  11.248   1.148  1.00  0.00     0.000 A 
ATOM      9  C   UNL     1      15.653  12.971  -0.002  1.00  0.00     0.000 A 
ATOM     10  C   UNL     1      14.704  11.947  -0.020  1.00  0.00     0.000 A 
ENDBRANCH   2   5
BRANCH   2  11
ATOM     11  C   UNL     1      15.734  13.824   4.623  1.00  0.00    -0.012 A 
ATOM     12  C   UNL     1      15.188  15.024   4.119  1.00  0.00     0.007 A 
ATOM     13  C   UNL     1      15.471  13.479   5.967  1.00  0.00     0.007 A 
ATOM     14  C   UNL     1      14.369  15.825   4.919  1.00  0.00     0.000 A 
ATOM     15  C   UNL     1      14.655  14.289   6.764  1.00  0.00     0.000 A 
ATOM     16  C   UNL     1      14.100  15.457   6.240  1.00  0.00     0.000 A 
ENDBRANCH   2  11
ENDBRANCH   1   2
BRANCH   1  17
ATOM     17  C   UNL     1      19.256  13.047   4.075  1.00  0.00     0.019 C 
BRANCH  17  18
ATOM     18  C   UNL     1      20.357  14.062   4.449  1.00  0.00     0.084 C 
BRANCH  18  19
ATOM     19  N   UNL     1      21.656  13.447   4.807  1.00  0.00    -0.303 NA
ATOM     20  C   UNL     1      22.027  12.304   3.954  1.00  0.00     0.084 C 
ATOM     21  C   UNL     1      21.770  13.141   6.254  1.00  0.00     0.084 C 
ATOM     22  C   UNL     1      23.526  11.985   4.114  1.00  0.00     0.016 C 
ATOM     23  C   UNL     1      23.000  12.265   6.575  1.00  0.00     0.016 C 
ATOM     24  C   UNL     1      24.074  12.398   5.491  1.00  0.00     0.003 C 
ENDBRANCH  18  19
ENDBRANCH  17  18
ENDBRANCH   1  17
TORSDOF 7
ENDMDL
MODEL 9
REMARK VINA RESULT:    -7.291      2.545      5.968
REMARK INTER + INTRA:         -12.363
REMARK INTER:                 -10.482
REMARK INTRA:                  -1.881
REMARK UNBOUND:                -2.301
REMARK SMILES OC(CCCN1CCCCC1)(c1ccccc1)c1ccccc1
REMARK SMILES IDX 3 1 2 2 1 3 12 5 13 6 17 7 14 8 16 9 15 10 18 11 19 12 23 13
REMARK SMILES IDX 20 14 22 15 21 16 4 17 5 18 6 19 7 20 11 21 8 22 10 23 9 24
REMARK H PARENT 1 4
REMARK Flexibility Score: inf
ROOT
ATOM      1  C   UNL     1      11.004  13.178  15.678  1.00  0.00     0.046 C 
ENDROOT
BRANCH   1   2
ATOM      2  C   UNL     1      11.764  12.237  14.696  1.00  0.00     0.115 C 
BRANCH   2   3
ATOM      3  O   UNL     1      10.792  11.535  13.953  1.00  0.00    -0.380 OA
ATOM      4  H   UNL     1      10.883  10.566  14.157  1.00  0.00     0.212 HD
ENDBRANCH   2   3
BRANCH   2   5
ATOM      5  C   UNL     1      12.638  11.199  15.440  1.00  0.00    -0.012 A 
ATOM      6  C   UNL     1      13.517  11.635  16.459  1.00  0.00     0.007 A 
ATOM      7  C   UNL     1      12.658   9.825  15.095  1.00  0.00     0.007 A 
ATOM      8  C   UNL     1      14.319  10.726  17.155  1.00  0.00     0.000 A 
ATOM      9  C   UNL     1      13.471   8.925  15.790  1.00  0.00     0.000 A 
ATOM     10  C   UNL     1      14.291   9.373  16.826  1.00  0.00     0.000 A 
ENDBRANCH   2   5
BRANCH   2  11
ATOM     11  C   UNL     1      12.643  13.104  13.778  1.00  0.00    -0.012 A 
ATOM     12  C   UNL     1      13.185  14.315  14.258  1.00  0.00     0.007 A 
ATOM     13  C   UNL     1      12.852  12.766  12.422  1.00  0.00     0.007 A 
ATOM     14  C   UNL     1      13.948  15.135  13.423  1.00  0.00     0.000 A 
ATOM     15  C   UNL     1      13.611  13.595  11.590  1.00  0.00     0.000 A 
ATOM     16  C   UNL     1      14.164  14.775  12.091  1.00  0.00     0.000 A 
ENDBRANCH   2  11
ENDBRANCH   1   2
BRANCH   1  17
ATOM     17  C   UNL     1       9.587  13.569  15.212  1.00  0.00     0.019 C 
BRANCH  17  18
ATOM     18  C   UNL     1       9.608  14.920  14.466  1.00  0.00     0.084 C 
BRANCH  18  19
ATOM     19  N   UNL     1       9.481  14.806  12.995  1.00  0.00    -0.303 NA
ATOM     20  C   UNL     1      10.355  15.730  12.250  1.00  0.00     0.084 C 
ATOM     21  C   UNL     1       8.072  14.853  12.533  1.00  0.00     0.084 C 
ATOM     22  C   UNL     1      10.467  15.286  10.779  1.00  0.00     0.016 C 
ATOM     23  C   UNL     1       7.961  15.004  11.000  1.00  0.00     0.016 C 
ATOM     24  C   UNL     1       9.230  14.507  10.300  1.00  0.00     0.003 C 
ENDBRANCH  18  19
ENDBRANCH  17  18
ENDBRANCH   1  17
TORSDOF 7
ENDMDL
MODEL 10
REMARK VINA RESULT:    -7.271      2.157      4.927
REMARK INTER + INTRA:         -12.334
REMARK INTER:                 -10.576
REMARK INTRA:                  -1.758
REMARK UNBOUND:                -2.301
REMARK SMILES OC(CCCN1CCCCC1)(c1ccccc1)c1ccccc1
REMARK SMILES IDX 3 1 2 2 1 3 12 5 13 6 17 7 14 8 16 9 15 10 18 11 19 12 23 13
REMARK SMILES IDX 20 14 22 15 21 16 4 17 5 18 6 19 7 20 11 21 8 22 10 23 9 24
REMARK H PARENT 1 4
REMARK Flexibility Score: inf
ROOT
ATOM      1  C   UNL     1      10.449  10.422  16.737  1.00  0.00     0.046 C 
ENDROOT
BRANCH   1   2
ATOM      2  C   UNL     1      11.620  10.726  15.756  1.00  0.00     0.115 C 
BRANCH   2   3
ATOM      3  O   UNL     1      11.830   9.564  14.982  1.00  0.00    -0.380 OA
ATOM      4  H   UNL     1      10.945   9.154  14.789  1.00  0.00     0.212 HD
ENDBRANCH   2   3
BRANCH   2   5
ATOM      5  C   UNL     1      12.938  11.049  16.500  1.00  0.00    -0.012 A 
ATOM      6  C   UNL     1      13.223  12.387  16.857  1.00  0.00     0.007 A 
ATOM      7  C   UNL     1      13.921  10.067  16.778  1.00  0.00     0.007 A 
ATOM      8  C   UNL     1      14.401  12.716  17.533  1.00  0.00     0.000 A 
ATOM      9  C   UNL     1      15.101  10.407  17.446  1.00  0.00     0.000 A 
ATOM     10  C   UNL     1      15.335  11.728  17.833  1.00  0.00     0.000 A 
ENDBRANCH   2   5
BRANCH   2  11
ATOM     11  C   UNL     1      11.212  11.914  14.868  1.00  0.00    -0.012 A 
ATOM     12  C   UNL     1      10.210  12.809  15.303  1.00  0.00     0.007 A 
ATOM     13  C   UNL     1      11.751  12.089  13.574  1.00  0.00     0.007 A 
ATOM     14  C   UNL     1       9.797  13.866  14.489  1.00  0.00     0.000 A 
ATOM     15  C   UNL     1      11.328  13.146  12.762  1.00  0.00     0.000 A 
ATOM     16  C   UNL     1      10.357  14.038  13.221  1.00  0.00     0.000 A 
ENDBRANCH   2  11
ENDBRANCH   1   2
BRANCH   1  17
ATOM     17  C   UNL     1      10.640   9.141  17.574  1.00  0.00     0.019 C 
BRANCH  17  18
ATOM     18  C   UNL     1      10.587   9.458  19.084  1.00  0.00     0.084 C 
BRANCH  18  19
ATOM     19  N   UNL     1      11.801   9.061  19.833  1.00  0.00    -0.303 NA
ATOM     20  C   UNL     1      12.665  10.194  20.209  1.00  0.00     0.084 C 
ATOM     21  C   UNL     1      12.552   7.964  19.173  1.00  0.00     0.084 C 
ATOM     22  C   UNL     1      13.662   9.763  21.302  1.00  0.00     0.016 C 
ATOM     23  C   UNL     1      13.942   7.739  19.806  1.00  0.00     0.016 C 
ATOM     24  C   UNL     1      13.986   8.260  21.246  1.00  0.00     0.003 C 
ENDBRANCH  18  19
ENDBRANCH  17  18
ENDBRANCH   1  17
TORSDOF 7
ENDMDL
MODEL 11
REMARK VINA RESULT:    -7.263      2.279      5.582
REMARK INTER + INTRA:         -12.324
REMARK INTER:                 -10.496
REMARK INTRA:                  -1.828
REMARK UNBOUND:                -2.301
REMARK SMILES OC(CCCN1CCCCC1)(c1ccccc1)c1ccccc1
REMARK SMILES IDX 3 1 2 2 1 3 12 5 13 6 17 7 14 8 16 9 15 10 18 11 19 12 23 13
REMARK SMILES IDX 20 14 22 15 21 16 4 17 5 18 6 19 7 20 11 21 8 22 10 23 9 24
REMARK H PARENT 1 4
REMARK Flexibility Score: inf
ROOT
ATOM      1  C   UNL     1      12.527  13.354  14.140  1.00  0.00     0.046 C 
ENDROOT
BRANCH   1   2
ATOM      2  C   UNL     1      11.585  12.185  14.557  1.00  0.00     0.115 C 
BRANCH   2   3
ATOM      3  O   UNL     1      11.030  11.652  13.374  1.00  0.00    -0.380 OA
ATOM      4  H   UNL     1      11.758  11.556  12.703  1.00  0.00     0.212 HD
ENDBRANCH   2   3
BRANCH   2   5
ATOM      5  C   UNL     1      10.421  12.665  15.456  1.00  0.00    -0.012 A 
ATOM      6  C   UNL     1       9.801  13.906  15.184  1.00  0.00     0.007 A 
ATOM      7  C   UNL     1       9.989  11.948  16.600  1.00  0.00     0.007 A 
ATOM      8  C   UNL     1       8.744  14.371  15.972  1.00  0.00     0.000 A 
ATOM      9  C   UNL     1       8.938  12.425  17.388  1.00  0.00     0.000 A 
ATOM     10  C   UNL     1       8.309  13.629  17.067  1.00  0.00     0.000 A 
ENDBRANCH   2   5
BRANCH   2  11
ATOM     11  C   UNL     1      12.423  11.129  15.299  1.00  0.00    -0.012 A 
ATOM     12  C   UNL     1      13.391  11.533  16.243  1.00  0.00     0.007 A 
ATOM     13  C   UNL     1      12.315   9.754  14.995  1.00  0.00     0.007 A 
ATOM     14  C   UNL     1      14.191  10.589  16.892  1.00  0.00     0.000 A 
ATOM     15  C   UNL     1      13.123   8.815  15.644  1.00  0.00     0.000 A 
ATOM     16  C   UNL     1      14.056   9.231  16.595  1.00  0.00     0.000 A 
ENDBRANCH   2  11
ENDBRANCH   1   2
BRANCH   1  17
ATOM     17  C   UNL     1      13.045  13.263  12.690  1.00  0.00     0.019 C 
BRANCH  17  18
ATOM     18  C   UNL     1      12.547  14.460  11.853  1.00  0.00     0.084 C 
BRANCH  18  19
ATOM     19  N   UNL     1      11.077  14.638  11.858  1.00  0.00    -0.303 NA
ATOM     20  C   UNL     1      10.429  14.273  10.586  1.00  0.00     0.084 C 
ATOM     21  C   UNL     1      10.661  15.975  12.350  1.00  0.00     0.084 C 
ATOM     22  C   UNL     1       8.912  14.099  10.793  1.00  0.00     0.016 C 
ATOM     23  C   UNL     1       9.162  16.251  12.103  1.00  0.00     0.016 C 
ATOM     24  C   UNL     1       8.373  14.945  11.959  1.00  0.00     0.003 C 
ENDBRANCH  18  19
ENDBRANCH  17  18
ENDBRANCH   1  17
TORSDOF 7
ENDMDL
MODEL 12
REMARK VINA RESULT:    -7.214      2.094      4.272
REMARK INTER + INTRA:         -12.256
REMARK INTER:                 -10.048
REMARK INTRA:                  -2.208
REMARK UNBOUND:                -2.301
REMARK SMILES OC(CCCN1CCCCC1)(c1ccccc1)c1ccccc1
REMARK SMILES IDX 3 1 2 2 1 3 12 5 13 6 17 7 14 8 16 9 15 10 18 11 19 12 23 13
REMARK SMILES IDX 20 14 22 15 21 16 4 17 5 18 6 19 7 20 11 21 8 22 10 23 9 24
REMARK H PARENT 1 4
REMARK Flexibility Score: inf
ROOT
ATOM      1  C   UNL     1      10.285  12.564  15.424  1.00  0.00     0.046 C 
ENDROOT
BRANCH   1   2
ATOM      2  C   UNL     1      11.796  12.707  15.072  1.00  0.00     0.115 C 
BRANCH   2   3
ATOM      3  O   UNL     1      12.277  13.847  15.751  1.00  0.00    -0.380 OA
ATOM      4  H   UNL     1      11.861  14.653  15.343  1.00  0.00     0.212 HD
ENDBRANCH   2   3
BRANCH   2   5
ATOM      5  C   UNL     1      12.024  12.923  13.557  1.00  0.00    -0.012 A 
ATOM      6  C   UNL     1      13.236  13.501  13.114  1.00  0.00     0.007 A 
ATOM      7  C   UNL     1      11.035  12.637  12.584  1.00  0.00     0.007 A 
ATOM      8  C   UNL     1      13.480  13.708  11.753  1.00  0.00     0.000 A 
ATOM      9  C   UNL     1      11.283  12.856  11.225  1.00  0.00     0.000 A 
ATOM     10  C   UNL     1      12.509  13.380  10.810  1.00  0.00     0.000 A 
ENDBRANCH   2   5
BRANCH   2  11
ATOM     11  C   UNL     1      12.525  11.436  15.539  1.00  0.00    -0.012 A 
ATOM     12  C   UNL     1      13.556  11.527  16.500  1.00  0.00     0.007 A 
ATOM     13  C   UNL     1      12.254  10.175  14.963  1.00  0.00     0.007 A 
ATOM     14  C   UNL     1      14.258  10.388  16.901  1.00  0.00     0.000 A 
ATOM     15  C   UNL     1      12.965   9.040  15.365  1.00  0.00     0.000 A 
ATOM     16  C   UNL     1      13.961   9.145  16.337  1.00  0.00     0.000 A 
ENDBRANCH   2  11
ENDBRANCH   1   2
BRANCH   1  17
ATOM     17  C   UNL     1       9.693  13.770  16.181  1.00  0.00     0.019 C 
BRANCH  17  18
ATOM     18  C   UNL     1       8.473  14.344  15.431  1.00  0.00     0.084 C 
BRANCH  18  19
ATOM     19  N   UNL     1       8.785  14.900  14.094  1.00  0.00    -0.303 NA
ATOM     20  C   UNL     1       9.719  16.039  14.128  1.00  0.00     0.084 C 
ATOM     21  C   UNL     1       7.571  15.179  13.288  1.00  0.00     0.084 C 
ATOM     22  C   UNL     1      10.298  16.294  12.723  1.00  0.00     0.016 C 
ATOM     23  C   UNL     1       7.885  15.999  12.018  1.00  0.00     0.016 C 
ATOM     24  C   UNL     1       9.350  15.838  11.601  1.00  0.00     0.003 C 
ENDBRANCH  18  19
ENDBRANCH  17  18
ENDBRANCH   1  17
TORSDOF 7
ENDMDL
MODEL 13
REMARK VINA RESULT:    -7.206      1.964      4.886
REMARK INTER + INTRA:         -12.245
REMARK INTER:                  -9.914
REMARK INTRA:                  -2.331
REMARK UNBOUND:                -2.301
REMARK SMILES OC(CCCN1CCCCC1)(c1ccccc1)c1ccccc1
REMARK SMILES IDX 3 1 2 2 1 3 12 5 13 6 17 7 14 8 16 9 15 10 18 11 19 12 23 13
REMARK SMILES IDX 20 14 22 15 21 16 4 17 5 18 6 19 7 20 11 21 8 22 10 23 9 24
REMARK H PARENT 1 4
REMARK Flexibility Score: inf
ROOT
ATOM      1  C   UNL     1       9.138  11.092  17.402  1.00  0.00     0.046 C 
ENDROOT
BRANCH   1   2
ATOM      2  C   UNL     1       9.823  12.491  17.445  1.00  0.00     0.115 C 
BRANCH   2   3
ATOM      3  O   UNL     1      10.444  12.614  18.707  1.00  0.00    -0.380 OA
ATOM      4  H   UNL     1      10.809  11.726  18.963  1.00  0.00     0.212 HD
ENDBRANCH   2   3
BRANCH   2   5
ATOM      5  C   UNL     1       8.804  13.646  17.299  1.00  0.00    -0.012 A 
ATOM      6  C   UNL     1       8.447  14.403  18.439  1.00  0.00     0.007 A 
ATOM      7  C   UNL     1       8.145  13.937  16.079  1.00  0.00     0.007 A 
ATOM      8  C   UNL     1       7.532  15.456  18.345  1.00  0.00     0.000 A 
ATOM      9  C   UNL     1       7.224  14.987  15.997  1.00  0.00     0.000 A 
ATOM     10  C   UNL     1       6.927  15.752  17.126  1.00  0.00     0.000 A 
ENDBRANCH   2   5
BRANCH   2  11
ATOM     11  C   UNL     1      10.861  12.557  16.311  1.00  0.00    -0.012 A 
ATOM     12  C   UNL     1      11.926  13.480  16.383  1.00  0.00     0.007 A 
ATOM     13  C   UNL     1      10.727  11.776  15.141  1.00  0.00     0.007 A 
ATOM     14  C   UNL     1      12.851  13.584  15.340  1.00  0.00     0.000 A 
ATOM     15  C   UNL     1      11.653  11.889  14.099  1.00  0.00     0.000 A 
ATOM     16  C   UNL     1      12.717  12.787  14.200  1.00  0.00     0.000 A 
ENDBRANCH   2  11
ENDBRANCH   1   2
BRANCH   1  17
ATOM     17  C   UNL     1       9.476  10.184  18.601  1.00  0.00     0.019 C 
BRANCH  17  18
ATOM     18  C   UNL     1      10.349   8.990  18.156  1.00  0.00     0.084 C 
BRANCH  18  19
ATOM     19  N   UNL     1      11.652   9.373  17.568  1.00  0.00    -0.303 NA
ATOM     20  C   UNL     1      12.176   8.398  16.597  1.00  0.00     0.084 C 
ATOM     21  C   UNL     1      12.656   9.756  18.592  1.00  0.00     0.084 C 
ATOM     22  C   UNL     1      13.295   9.037  15.751  1.00  0.00     0.016 C 
ATOM     23  C   UNL     1      14.076   9.893  18.002  1.00  0.00     0.016 C 
ATOM     24  C   UNL     1      14.026  10.167  16.495  1.00  0.00     0.003 C 
ENDBRANCH  18  19
ENDBRANCH  17  18
ENDBRANCH   1  17
TORSDOF 7
ENDMDL
MODEL 14
REMARK VINA RESULT:    -7.137      9.594     13.003
REMARK INTER + INTRA:         -12.149
REMARK INTER:                 -10.931
REMARK INTRA:                  -1.219
REMARK UNBOUND:                -2.301
REMARK SMILES OC(CCCN1CCCCC1)(c1ccccc1)c1ccccc1
REMARK SMILES IDX 3 1 2 2 1 3 12 5 13 6 17 7 14 8 16 9 15 10 18 11 19 12 23 13
REMARK SMILES IDX 20 14 22 15 21 16 4 17 5 18 6 19 7 20 11 21 8 22 10 23 9 24
REMARK H PARENT 1 4
REMARK Flexibility Score: inf
ROOT
ATOM      1  C   UNL     1      15.379  13.729   4.709  1.00  0.00     0.046 C 
ENDROOT
BRANCH   1   2
ATOM      2  C   UNL     1      16.407  12.777   4.029  1.00  0.00     0.115 C 
BRANCH   2   3
ATOM      3  O   UNL     1      16.453  11.593   4.796  1.00  0.00    -0.380 OA
ATOM      4  H   UNL     1      16.704  11.835   5.728  1.00  0.00     0.212 HD
ENDBRANCH   2   3
BRANCH   2   5
ATOM      5  C   UNL     1      17.831  13.381   3.999  1.00  0.00    -0.012 A 
ATOM      6  C   UNL     1      18.926  12.560   3.641  1.00  0.00     0.007 A 
ATOM      7  C   UNL     1      18.107  14.715   4.390  1.00  0.00     0.007 A 
ATOM      8  C   UNL     1      20.226  13.071   3.599  1.00  0.00     0.000 A 
ATOM      9  C   UNL     1      19.412  15.215   4.353  1.00  0.00     0.000 A 
ATOM     10  C   UNL     1      20.468  14.398   3.948  1.00  0.00     0.000 A 
ENDBRANCH   2   5
BRANCH   2  11
ATOM     11  C   UNL     1      15.926  12.488   2.596  1.00  0.00    -0.012 A 
ATOM     12  C   UNL     1      16.260  13.374   1.549  1.00  0.00     0.007 A 
ATOM     13  C   UNL     1      15.074  11.399   2.309  1.00  0.00     0.007 A 
ATOM     14  C   UNL     1      15.793  13.150   0.251  1.00  0.00     0.000 A 
ATOM     15  C   UNL     1      14.606  11.185   1.009  1.00  0.00     0.000 A 
ATOM     16  C   UNL     1      14.970  12.055  -0.020  1.00  0.00     0.000 A 
ENDBRANCH   2  11
ENDBRANCH   1   2
BRANCH   1  17
ATOM     17  C   UNL     1      15.180  13.474   6.217  1.00  0.00     0.019 C 
BRANCH  17  18
ATOM     18  C   UNL     1      14.696  14.754   6.932  1.00  0.00     0.084 C 
BRANCH  18  19
ATOM     19  N   UNL     1      13.369  15.237   6.485  1.00  0.00    -0.303 NA
ATOM     20  C   UNL     1      13.417  16.514   5.752  1.00  0.00     0.084 C 
ATOM     21  C   UNL     1      12.361  15.240   7.574  1.00  0.00     0.084 C 
ATOM     22  C   UNL     1      12.097  16.739   4.989  1.00  0.00     0.016 C 
ATOM     23  C   UNL     1      11.070  15.988   7.178  1.00  0.00     0.016 C 
ATOM     24  C   UNL     1      10.902  16.036   5.656  1.00  0.00     0.003 C 
ENDBRANCH  18  19
ENDBRANCH  17  18
ENDBRANCH   1  17
TORSDOF 7
ENDMDL
MODEL 15
REMARK VINA RESULT:    -7.078      2.374      5.103
REMARK INTER + INTRA:         -12.069
REMARK INTER:                 -10.356
REMARK INTRA:                  -1.712
REMARK UNBOUND:                -2.301
REMARK SMILES OC(CCCN1CCCCC1)(c1ccccc1)c1ccccc1
REMARK SMILES IDX 3 1 2 2 1 3 12 5 13 6 17 7 14 8 16 9 15 10 18 11 19 12 23 13
REMARK SMILES IDX 20 14 22 15 21 16 4 17 5 18 6 19 7 20 11 21 8 22 10 23 9 24
REMARK H PARENT 1 4
REMARK Flexibility Score: inf
ROOT
ATOM      1  C   UNL     1      12.993  13.947  15.587  1.00  0.00     0.046 C 
ENDROOT
BRANCH   1   2
ATOM      2  C   UNL     1      12.032  12.884  14.975  1.00  0.00     0.115 C 
BRANCH   2   3
ATOM      3  O   UNL     1      10.749  13.121  15.512  1.00  0.00    -0.380 OA
ATOM      4  H   UNL     1      10.106  12.507  15.067  1.00  0.00     0.212 HD
ENDBRANCH   2   3
BRANCH   2   5
ATOM      5  C   UNL     1      12.446  11.440  15.346  1.00  0.00    -0.012 A 
ATOM      6  C   UNL     1      13.568  11.233  16.181  1.00  0.00     0.007 A 
ATOM      7  C   UNL     1      11.792  10.297  14.822  1.00  0.00     0.007 A 
ATOM      8  C   UNL     1      13.969   9.943  16.540  1.00  0.00     0.000 A 
ATOM      9  C   UNL     1      12.207   9.010  15.180  1.00  0.00     0.000 A 
ATOM     10  C   UNL     1      13.286   8.834  16.046  1.00  0.00     0.000 A 
ENDBRANCH   2   5
BRANCH   2  11
ATOM     11  C   UNL     1      12.031  13.056  13.446  1.00  0.00    -0.012 A 
ATOM     12  C   UNL     1      10.818  12.972  12.728  1.00  0.00     0.007 A 
ATOM     13  C   UNL     1      13.233  13.206  12.719  1.00  0.00     0.007 A 
ATOM     14  C   UNL     1      10.807  13.081  11.335  1.00  0.00     0.000 A 
ATOM     15  C   UNL     1      13.214  13.308  11.324  1.00  0.00     0.000 A 
ATOM     16  C   UNL     1      12.003  13.252  10.633  1.00  0.00     0.000 A 
ENDBRANCH   2  11
ENDBRANCH   1   2
BRANCH   1  17
ATOM     17  C   UNL     1      12.406  14.714  16.789  1.00  0.00     0.019 C 
BRANCH  17  18
ATOM     18  C   UNL     1      13.520  15.123  17.776  1.00  0.00     0.084 C 
BRANCH  18  19
ATOM     19  N   UNL     1      14.557  14.087  17.989  1.00  0.00    -0.303 NA
ATOM     20  C   UNL     1      14.550  13.509  19.344  1.00  0.00     0.084 C 
ATOM     21  C   UNL     1      15.908  14.528  17.561  1.00  0.00     0.084 C 
ATOM     22  C   UNL     1      15.356  12.196  19.366  1.00  0.00     0.016 C 
ATOM     23  C   UNL     1      17.017  13.560  18.028  1.00  0.00     0.016 C 
ATOM     24  C   UNL     1      16.456  12.159  18.291  1.00  0.00     0.003 C 
ENDBRANCH  18  19
ENDBRANCH  17  18
ENDBRANCH   1  17
TORSDOF 7
ENDMDL
