MODEL 1
REMARK VINA RESULT:    -8.267      0.000      0.000
REMARK INTER + INTRA:         -12.509
REMARK INTER:                 -11.408
REMARK INTRA:                  -1.100
REMARK UNBOUND:                -1.100
REMARK SMILES OC(CCCN1CCCCC1)(c1ccccc1)c1ccccc1
REMARK SMILES IDX 3 1 2 2 1 3 12 5 13 6 17 7 14 8 16 9 15 10 18 11 19 12 23 13
REMARK SMILES IDX 20 14 22 15 21 16 4 17 5 18 6 19 7 20 11 21 8 22 10 23 9 24
REMARK H PARENT 1 4
REMARK Flexibility Score: inf
ROOT
ATOM      1  C   UNL     1      16.354  32.577  10.978  1.00  0.00     0.046 C 
ENDROOT
BRANCH   1   2
ATOM      2  C   UNL     1      16.924  33.666  11.936  1.00  0.00     0.115 C 
BRANCH   2   3
ATOM      3  O   UNL     1      17.081  34.848  11.181  1.00  0.00    -0.380 OA
ATOM      4  H   UNL     1      17.819  35.379  11.583  1.00  0.00     0.212 HD
ENDBRANCH   2   3
BRANCH   2   5
ATOM      5  C   UNL     1      18.309  33.276  12.506  1.00  0.00    -0.012 A 
ATOM      6  C   UNL     1      19.477  33.800  11.906  1.00  0.00     0.007 A 
ATOM      7  C   UNL     1      18.469  32.348  13.564  1.00  0.00     0.007 A 
ATOM      8  C   UNL     1      20.745  33.473  12.395  1.00  0.00     0.000 A 
ATOM      9  C   UNL     1      19.742  32.020  14.041  1.00  0.00     0.000 A 
ATOM     10  C   UNL     1      20.877  32.591  13.464  1.00  0.00     0.000 A 
ENDBRANCH   2   5
BRANCH   2  11
ATOM     11  C   UNL     1      15.921  33.873  13.084  1.00  0.00    -0.012 A 
ATOM     12  C   UNL     1      14.618  33.338  12.988  1.00  0.00     0.007 A 
ATOM     13  C   UNL     1      16.238  34.669  14.207  1.00  0.00     0.007 A 
ATOM     14  C   UNL     1      13.682  33.555  14.002  1.00  0.00     0.000 A 
ATOM     15  C   UNL     1      15.294  34.887  15.216  1.00  0.00     0.000 A 
ATOM     16  C   UNL     1      14.020  34.326  15.117  1.00  0.00     0.000 A 
ENDBRANCH   2  11
ENDBRANCH   1   2
BRANCH   1  17
ATOM     17  C   UNL     1      16.497  32.914   9.480  1.00  0.00     0.019 C 
BRANCH  17  18
ATOM     18  C   UNL     1      17.398  31.883   8.768  1.00  0.00     0.084 C 
BRANCH  18  19
ATOM     19  N   UNL     1      16.666  30.742   8.173  1.00  0.00    -0.303 NA
ATOM     20  C   UNL     1      17.323  30.167   6.986  1.00  0.00     0.084 C 
ATOM     21  C   UNL     1      15.229  31.035   7.945  1.00  0.00     0.084 C 
ATOM     22  C   UNL     1      16.740  28.775   6.675  1.00  0.00     0.016 C 
ATOM     23  C   UNL     1      14.537  29.954   7.087  1.00  0.00     0.016 C 
ATOM     24  C   UNL     1      15.289  28.621   7.162  1.00  0.00     0.003 C 
ENDBRANCH  18  19
ENDBRANCH  17  18
ENDBRANCH   1  17
TORSDOF 7
ENDMDL
MODEL 2
REMARK VINA RESULT:    -8.162      0.865      4.021
REMARK INTER + INTRA:         -12.364
REMARK INTER:                 -11.301
REMARK INTRA:                  -1.063
REMARK UNBOUND:                -1.100
REMARK SMILES OC(CCCN1CCCCC1)(c1ccccc1)c1ccccc1
REMARK SMILES IDX 3 1 2 2 1 3 12 5 13 6 17 7 14 8 16 9 15 10 18 11 19 12 23 13
REMARK SMILES IDX 20 14 22 15 21 16 4 17 5 18 6 19 7 20 11 21 8 22 10 23 9 24
REMARK H PARENT 1 4
REMARK Flexibility Score: inf
ROOT
ATOM      1  C   UNL     1      17.012  34.243  10.934  1.00  0.00     0.046 C 
ENDROOT
BRANCH   1   2
ATOM      2  C   UNL     1      16.972  33.265  12.146  1.00  0.00     0.115 C 
BRANCH   2   3
ATOM      3  O   UNL     1      16.409  32.055  11.690  1.00  0.00    -0.380 OA
ATOM      4  H   UNL     1      15.988  31.595  12.465  1.00  0.00     0.212 HD
ENDBRANCH   2   3
BRANCH   2   5
ATOM      5  C   UNL     1      16.088  33.799  13.298  1.00  0.00    -0.012 A 
ATOM      6  C   UNL     1      14.704  33.507  13.302  1.00  0.00     0.007 A 
ATOM      7  C   UNL     1      16.588  34.641  14.322  1.00  0.00     0.007 A 
ATOM      8  C   UNL     1      13.874  33.969  14.328  1.00  0.00     0.000 A 
ATOM      9  C   UNL     1      15.748  35.106  15.339  1.00  0.00     0.000 A 
ATOM     10  C   UNL     1      14.396  34.761  15.348  1.00  0.00     0.000 A 
ENDBRANCH   2   5
BRANCH   2  11
ATOM     11  C   UNL     1      18.413  33.051  12.644  1.00  0.00    -0.012 A 
ATOM     12  C   UNL     1      19.480  33.745  12.033  1.00  0.00     0.007 A 
ATOM     13  C   UNL     1      18.714  32.102  13.646  1.00  0.00     0.007 A 
ATOM     14  C   UNL     1      20.798  33.527  12.443  1.00  0.00     0.000 A 
ATOM     15  C   UNL     1      20.036  31.886  14.047  1.00  0.00     0.000 A 
ATOM     16  C   UNL     1      21.076  32.601  13.452  1.00  0.00     0.000 A 
ENDBRANCH   2  11
ENDBRANCH   1   2
BRANCH   1  17
ATOM     17  C   UNL     1      16.480  33.642   9.618  1.00  0.00     0.019 C 
BRANCH  17  18
ATOM     18  C   UNL     1      17.512  32.676   8.997  1.00  0.00     0.084 C 
BRANCH  18  19
ATOM     19  N   UNL     1      16.922  31.461   8.391  1.00  0.00    -0.303 NA
ATOM     20  C   UNL     1      17.593  31.028   7.153  1.00  0.00     0.084 C 
ATOM     21  C   UNL     1      15.448  31.548   8.243  1.00  0.00     0.084 C 
ATOM     22  C   UNL     1      17.201  29.577   6.814  1.00  0.00     0.016 C 
ATOM     23  C   UNL     1      14.875  30.407   7.375  1.00  0.00     0.016 C 
ATOM     24  C   UNL     1      15.814  29.196   7.361  1.00  0.00     0.003 C 
ENDBRANCH  18  19
ENDBRANCH  17  18
ENDBRANCH   1  17
TORSDOF 7
ENDMDL
MODEL 3
REMARK VINA RESULT:    -8.093      2.712      6.655
REMARK INTER + INTRA:         -12.268
REMARK INTER:                 -10.482
REMARK INTRA:                  -1.786
REMARK UNBOUND:                -1.100
REMARK SMILES OC(CCCN1CCCCC1)(c1ccccc1)c1ccccc1
REMARK SMILES IDX 3 1 2 2 1 3 12 5 13 6 17 7 14 8 16 9 15 10 18 11 19 12 23 13
REMARK SMILES IDX 20 14 22 15 21 16 4 17 5 18 6 19 7 20 11 21 8 22 10 23 9 24
REMARK H PARENT 1 4
REMARK Flexibility Score: inf
ROOT
ATOM      1  C   UNL     1      18.312  34.199  12.574  1.00  0.00     0.046 C 
ENDROOT
BRANCH   1   2
ATOM      2  C   UNL     1      17.039  33.406  12.155  1.00  0.00     0.115 C 
BRANCH   2   3
ATOM      3  O   UNL     1      17.361  32.033  12.215  1.00  0.00    -0.380 OA
ATOM      4  H   UNL     1      16.638  31.523  11.762  1.00  0.00     0.212 HD
ENDBRANCH   2   3
BRANCH   2   5
ATOM      5  C   UNL     1      16.599  33.729  10.707  1.00  0.00    -0.012 A 
ATOM      6  C   UNL     1      16.683  32.725   9.715  1.00  0.00     0.007 A 
ATOM      7  C   UNL     1      16.181  35.022  10.303  1.00  0.00     0.007 A 
ATOM      8  C   UNL     1      16.292  32.979   8.398  1.00  0.00     0.000 A 
ATOM      9  C   UNL     1      15.800  35.270   8.981  1.00  0.00     0.000 A 
ATOM     10  C   UNL     1      15.845  34.246   8.033  1.00  0.00     0.000 A 
ENDBRANCH   2   5
BRANCH   2  11
ATOM     11  C   UNL     1      15.907  33.751  13.139  1.00  0.00    -0.012 A 
ATOM     12  C   UNL     1      16.191  34.490  14.308  1.00  0.00     0.007 A 
ATOM     13  C   UNL     1      14.593  33.268  12.953  1.00  0.00     0.007 A 
ATOM     14  C   UNL     1      15.183  34.773  15.233  1.00  0.00     0.000 A 
ATOM     15  C   UNL     1      13.591  33.550  13.886  1.00  0.00     0.000 A 
ATOM     16  C   UNL     1      13.884  34.307  15.022  1.00  0.00     0.000 A 
ENDBRANCH   2  11
ENDBRANCH   1   2
BRANCH   1  17
ATOM     17  C   UNL     1      19.590  33.340  12.671  1.00  0.00     0.019 C 
BRANCH  17  18
ATOM     18  C   UNL     1      20.489  33.822  13.830  1.00  0.00     0.084 C 
BRANCH  18  19
ATOM     19  N   UNL     1      19.777  34.601  14.869  1.00  0.00    -0.303 NA
ATOM     20  C   UNL     1      20.428  35.880  15.204  1.00  0.00     0.084 C 
ATOM     21  C   UNL     1      19.451  33.794  16.071  1.00  0.00     0.084 C 
ATOM     22  C   UNL     1      19.449  36.792  15.967  1.00  0.00     0.016 C 
ATOM     23  C   UNL     1      18.957  34.664  17.247  1.00  0.00     0.016 C 
ATOM     24  C   UNL     1      18.390  35.998  16.750  1.00  0.00     0.003 C 
ENDBRANCH  18  19
ENDBRANCH  17  18
ENDBRANCH   1  17
TORSDOF 7
ENDMDL
MODEL 4
REMARK VINA RESULT:    -7.980      2.761      6.602
REMARK INTER + INTRA:         -12.113
REMARK INTER:                 -10.515
REMARK INTRA:                  -1.598
REMARK UNBOUND:                -1.100
REMARK SMILES OC(CCCN1CCCCC1)(c1ccccc1)c1ccccc1
REMARK SMILES IDX 3 1 2 2 1 3 12 5 13 6 17 7 14 8 16 9 15 10 18 11 19 12 23 13
REMARK SMILES IDX 20 14 22 15 21 16 4 17 5 18 6 19 7 20 11 21 8 22 10 23 9 24
REMARK H PARENT 1 4
REMARK Flexibility Score: inf
ROOT
ATOM      1  C   UNL     1      19.234  33.744  11.905  1.00  0.00     0.046 C 
ENDROOT
BRANCH   1   2
ATOM      2  C   UNL     1      17.744  33.290  11.862  1.00  0.00     0.115 C 
BRANCH   2   3
ATOM      3  O   UNL     1      17.733  31.881  11.947  1.00  0.00    -0.380 OA
ATOM      4  H   UNL     1      16.860  31.599  12.332  1.00  0.00     0.212 HD
ENDBRANCH   2   3
BRANCH   2   5
ATOM      5  C   UNL     1      17.049  33.693  10.539  1.00  0.00    -0.012 A 
ATOM      6  C   UNL     1      17.140  32.835   9.419  1.00  0.00     0.007 A 
ATOM      7  C   UNL     1      16.382  34.932  10.370  1.00  0.00     0.007 A 
ATOM      8  C   UNL     1      16.522  33.164   8.209  1.00  0.00     0.000 A 
ATOM      9  C   UNL     1      15.775  35.256   9.153  1.00  0.00     0.000 A 
ATOM     10  C   UNL     1      15.835  34.368   8.078  1.00  0.00     0.000 A 
ENDBRANCH   2   5
BRANCH   2  11
ATOM     11  C   UNL     1      17.010  33.922  13.057  1.00  0.00    -0.012 A 
ATOM     12  C   UNL     1      17.725  34.702  13.991  1.00  0.00     0.007 A 
ATOM     13  C   UNL     1      15.642  33.669  13.301  1.00  0.00     0.007 A 
ATOM     14  C   UNL     1      17.082  35.245  15.106  1.00  0.00     0.000 A 
ATOM     15  C   UNL     1      15.006  34.211  14.422  1.00  0.00     0.000 A 
ATOM     16  C   UNL     1      15.723  35.003  15.320  1.00  0.00     0.000 A 
ENDBRANCH   2  11
ENDBRANCH   1   2
BRANCH   1  17
ATOM     17  C   UNL     1      20.241  32.594  12.111  1.00  0.00     0.019 C 
BRANCH  17  18
ATOM     18  C   UNL     1      21.509  33.097  12.832  1.00  0.00     0.084 C 
BRANCH  18  19
ATOM     19  N   UNL     1      21.269  34.204  13.787  1.00  0.00    -0.303 NA
ATOM     20  C   UNL     1      22.281  35.273  13.725  1.00  0.00     0.084 C 
ATOM     21  C   UNL     1      21.024  33.728  15.171  1.00  0.00     0.084 C 
ATOM     22  C   UNL     1      21.760  36.540  14.430  1.00  0.00     0.016 C 
ATOM     23  C   UNL     1      21.042  34.879  16.200  1.00  0.00     0.016 C 
ATOM     24  C   UNL     1      20.737  36.224  15.534  1.00  0.00     0.003 C 
ENDBRANCH  18  19
ENDBRANCH  17  18
ENDBRANCH   1  17
TORSDOF 7
ENDMDL
MODEL 5
REMARK VINA RESULT:    -7.940      2.790      6.588
REMARK INTER + INTRA:         -12.058
REMARK INTER:                 -10.924
REMARK INTRA:                  -1.134
REMARK UNBOUND:                -1.100
REMARK SMILES OC(CCCN1CCCCC1)(c1ccccc1)c1ccccc1
REMARK SMILES IDX 3 1 2 2 1 3 12 5 13 6 17 7 14 8 16 9 15 10 18 11 19 12 23 13
REMARK SMILES IDX 20 14 22 15 21 16 4 17 5 18 6 19 7 20 11 21 8 22 10 23 9 24
REMARK H PARENT 1 4
REMARK Flexibility Score: inf
ROOT
ATOM      1  C   UNL     1      19.337  33.859  11.798  1.00  0.00     0.046 C 
ENDROOT
BRANCH   1   2
ATOM      2  C   UNL     1      17.864  33.351  11.805  1.00  0.00     0.115 C 
BRANCH   2   3
ATOM      3  O   UNL     1      17.908  31.942  11.870  1.00  0.00    -0.380 OA
ATOM      4  H   UNL     1      16.988  31.609  12.048  1.00  0.00     0.212 HD
ENDBRANCH   2   3
BRANCH   2   5
ATOM      5  C   UNL     1      17.104  33.746  10.516  1.00  0.00    -0.012 A 
ATOM      6  C   UNL     1      17.159  32.893   9.390  1.00  0.00     0.007 A 
ATOM      7  C   UNL     1      16.409  34.973  10.382  1.00  0.00     0.007 A 
ATOM      8  C   UNL     1      16.482  33.215   8.210  1.00  0.00     0.000 A 
ATOM      9  C   UNL     1      15.743  35.291   9.194  1.00  0.00     0.000 A 
ATOM     10  C   UNL     1      15.770  34.408   8.114  1.00  0.00     0.000 A 
ENDBRANCH   2   5
BRANCH   2  11
ATOM     11  C   UNL     1      17.154  33.939  13.037  1.00  0.00    -0.012 A 
ATOM     12  C   UNL     1      17.896  34.648  14.006  1.00  0.00     0.007 A 
ATOM     13  C   UNL     1      15.781  33.711  13.276  1.00  0.00     0.007 A 
ATOM     14  C   UNL     1      17.274  35.149  15.153  1.00  0.00     0.000 A 
ATOM     15  C   UNL     1      15.166  34.211  14.429  1.00  0.00     0.000 A 
ATOM     16  C   UNL     1      15.910  34.934  15.363  1.00  0.00     0.000 A 
ENDBRANCH   2  11
ENDBRANCH   1   2
BRANCH   1  17
ATOM     17  C   UNL     1      20.379  32.786  12.172  1.00  0.00     0.019 C 
BRANCH  17  18
ATOM     18  C   UNL     1      21.342  33.310  13.259  1.00  0.00     0.084 C 
BRANCH  18  19
ATOM     19  N   UNL     1      22.053  34.556  12.894  1.00  0.00    -0.303 NA
ATOM     20  C   UNL     1      23.419  34.334  12.387  1.00  0.00     0.084 C 
ATOM     21  C   UNL     1      22.000  35.584  13.963  1.00  0.00     0.084 C 
ATOM     22  C   UNL     1      23.931  35.596  11.667  1.00  0.00     0.016 C 
ATOM     23  C   UNL     1      22.958  36.764  13.692  1.00  0.00     0.016 C 
ATOM     24  C   UNL     1      23.281  36.885  12.199  1.00  0.00     0.003 C 
ENDBRANCH  18  19
ENDBRANCH  17  18
ENDBRANCH   1  17
TORSDOF 7
ENDMDL
MODEL 6
REMARK VINA RESULT:    -7.924      2.134      4.419
REMARK INTER + INTRA:         -12.036
REMARK INTER:                 -11.276
REMARK INTRA:                  -0.760
REMARK UNBOUND:                -1.100
REMARK SMILES OC(CCCN1CCCCC1)(c1ccccc1)c1ccccc1
REMARK SMILES IDX 3 1 2 2 1 3 12 5 13 6 17 7 14 8 16 9 15 10 18 11 19 12 23 13
REMARK SMILES IDX 20 14 22 15 21 16 4 17 5 18 6 19 7 20 11 21 8 22 10 23 9 24
REMARK H PARENT 1 4
REMARK Flexibility Score: inf
ROOT
ATOM      1  C   UNL     1      17.468  34.034  12.444  1.00  0.00     0.046 C 
ENDROOT
BRANCH   1   2
ATOM      2  C   UNL     1      17.799  33.811  13.950  1.00  0.00     0.115 C 
BRANCH   2   3
ATOM      3  O   UNL     1      18.199  32.466  14.096  1.00  0.00    -0.380 OA
ATOM      4  H   UNL     1      18.114  32.017  13.212  1.00  0.00     0.212 HD
ENDBRANCH   2   3
BRANCH   2   5
ATOM      5  C   UNL     1      16.569  34.045  14.859  1.00  0.00    -0.012 A 
ATOM      6  C   UNL     1      16.707  33.911  16.260  1.00  0.00     0.007 A 
ATOM      7  C   UNL     1      15.277  34.317  14.346  1.00  0.00     0.007 A 
ATOM      8  C   UNL     1      15.619  34.118  17.113  1.00  0.00     0.000 A 
ATOM      9  C   UNL     1      14.192  34.513  15.206  1.00  0.00     0.000 A 
ATOM     10  C   UNL     1      14.366  34.425  16.588  1.00  0.00     0.000 A 
ENDBRANCH   2   5
BRANCH   2  11
ATOM     11  C   UNL     1      18.936  34.771  14.343  1.00  0.00    -0.012 A 
ATOM     12  C   UNL     1      20.265  34.482  13.966  1.00  0.00     0.007 A 
ATOM     13  C   UNL     1      18.699  35.901  15.157  1.00  0.00     0.007 A 
ATOM     14  C   UNL     1      21.313  35.320  14.354  1.00  0.00     0.000 A 
ATOM     15  C   UNL     1      19.755  36.732  15.546  1.00  0.00     0.000 A 
ATOM     16  C   UNL     1      21.059  36.446  15.141  1.00  0.00     0.000 A 
ENDBRANCH   2  11
ENDBRANCH   1   2
BRANCH   1  17
ATOM     17  C   UNL     1      17.197  32.736  11.656  1.00  0.00     0.019 C 
BRANCH  17  18
ATOM     18  C   UNL     1      18.083  32.665  10.393  1.00  0.00     0.084 C 
BRANCH  18  19
ATOM     19  N   UNL     1      17.457  31.963   9.249  1.00  0.00    -0.303 NA
ATOM     20  C   UNL     1      18.219  32.076   7.993  1.00  0.00     0.084 C 
ATOM     21  C   UNL     1      16.022  32.303   9.080  1.00  0.00     0.084 C 
ATOM     22  C   UNL     1      17.739  31.017   6.982  1.00  0.00     0.016 C 
ATOM     23  C   UNL     1      15.450  31.786   7.742  1.00  0.00     0.016 C 
ATOM     24  C   UNL     1      16.273  30.611   7.204  1.00  0.00     0.003 C 
ENDBRANCH  18  19
ENDBRANCH  17  18
ENDBRANCH   1  17
TORSDOF 7
ENDMDL
MODEL 7
REMARK VINA RESULT:    -7.848      3.205      6.921
REMARK INTER + INTRA:         -11.930
REMARK INTER:                 -10.742
REMARK INTRA:                  -1.188
REMARK UNBOUND:                -1.100
REMARK SMILES OC(CCCN1CCCCC1)(c1ccccc1)c1ccccc1
REMARK SMILES IDX 3 1 2 2 1 3 12 5 13 6 17 7 14 8 16 9 15 10 18 11 19 12 23 13
REMARK SMILES IDX 20 14 22 15 21 16 4 17 5 18 6 19 7 20 11 21 8 22 10 23 9 24
REMARK H PARENT 1 4
REMARK Flexibility Score: inf
ROOT
ATOM      1  C   UNL     1      20.525  33.865  12.399  1.00  0.00     0.046 C 
ENDROOT
BRANCH   1   2
ATOM      2  C   UNL     1      19.082  33.320  12.617  1.00  0.00     0.115 C 
BRANCH   2   3
ATOM      3  O   UNL     1      19.197  31.963  12.985  1.00  0.00    -0.380 OA
ATOM      4  H   UNL     1      18.594  31.429  12.402  1.00  0.00     0.212 HD
ENDBRANCH   2   3
BRANCH   2   5
ATOM      5  C   UNL     1      18.229  33.395  11.329  1.00  0.00    -0.012 A 
ATOM      6  C   UNL     1      18.383  32.399  10.337  1.00  0.00     0.007 A 
ATOM      7  C   UNL     1      17.344  34.467  11.056  1.00  0.00     0.007 A 
ATOM      8  C   UNL     1      17.627  32.431   9.161  1.00  0.00     0.000 A 
ATOM      9  C   UNL     1      16.599  34.496   9.873  1.00  0.00     0.000 A 
ATOM     10  C   UNL     1      16.732  33.473   8.933  1.00  0.00     0.000 A 
ENDBRANCH   2   5
BRANCH   2  11
ATOM     11  C   UNL     1      18.419  34.142  13.737  1.00  0.00    -0.012 A 
ATOM     12  C   UNL     1      19.173  35.097  14.451  1.00  0.00     0.007 A 
ATOM     13  C   UNL     1      17.085  33.902  14.137  1.00  0.00     0.007 A 
ATOM     14  C   UNL     1      18.597  35.819  15.500  1.00  0.00     0.000 A 
ATOM     15  C   UNL     1      16.518  34.624  15.192  1.00  0.00     0.000 A 
ATOM     16  C   UNL     1      17.270  35.586  15.868  1.00  0.00     0.000 A 
ENDBRANCH   2  11
ENDBRANCH   1   2
BRANCH   1  17
ATOM     17  C   UNL     1      21.638  32.825  12.645  1.00  0.00     0.019 C 
BRANCH  17  18
ATOM     18  C   UNL     1      22.899  33.498  13.227  1.00  0.00     0.084 C 
BRANCH  18  19
ATOM     19  N   UNL     1      23.056  34.923  12.856  1.00  0.00    -0.303 NA
ATOM     20  C   UNL     1      24.070  35.159  11.814  1.00  0.00     0.084 C 
ATOM     21  C   UNL     1      23.230  35.809  14.034  1.00  0.00     0.084 C 
ATOM     22  C   UNL     1      23.895  36.564  11.207  1.00  0.00     0.016 C 
ATOM     23  C   UNL     1      23.658  37.239  13.636  1.00  0.00     0.016 C 
ATOM     24  C   UNL     1      23.255  37.557  12.193  1.00  0.00     0.003 C 
ENDBRANCH  18  19
ENDBRANCH  17  18
ENDBRANCH   1  17
TORSDOF 7
ENDMDL
MODEL 8
REMARK VINA RESULT:    -7.795      2.588      6.945
REMARK INTER + INTRA:         -11.858
REMARK INTER:                 -10.080
REMARK INTRA:                  -1.778
REMARK UNBOUND:                -1.100
REMARK SMILES OC(CCCN1CCCCC1)(c1ccccc1)c1ccccc1
REMARK SMILES IDX 3 1 2 2 1 3 12 5 13 6 17 7 14 8 16 9 15 10 18 11 19 12 23 13
REMARK SMILES IDX 20 14 22 15 21 16 4 17 5 18 6 19 7 20 11 21 8 22 10 23 9 24
REMARK H PARENT 1 4
REMARK Flexibility Score: inf
ROOT
ATOM      1  C   UNL     1      18.048  32.322  12.520  1.00  0.00     0.046 C 
ENDROOT
BRANCH   1   2
ATOM      2  C   UNL     1      17.363  33.702  12.289  1.00  0.00     0.115 C 
BRANCH   2   3
ATOM      3  O   UNL     1      18.309  34.699  12.613  1.00  0.00    -0.380 OA
ATOM      4  H   UNL     1      18.923  34.809  11.839  1.00  0.00     0.212 HD
ENDBRANCH   2   3
BRANCH   2   5
ATOM      5  C   UNL     1      16.129  33.902  13.201  1.00  0.00    -0.012 A 
ATOM      6  C   UNL     1      16.266  34.630  14.405  1.00  0.00     0.007 A 
ATOM      7  C   UNL     1      14.868  33.318  12.922  1.00  0.00     0.007 A 
ATOM      8  C   UNL     1      15.173  34.834  15.251  1.00  0.00     0.000 A 
ATOM      9  C   UNL     1      13.782  33.519  13.780  1.00  0.00     0.000 A 
ATOM     10  C   UNL     1      13.932  34.286  14.936  1.00  0.00     0.000 A 
ENDBRANCH   2   5
BRANCH   2  11
ATOM     11  C   UNL     1      16.947  33.795  10.811  1.00  0.00    -0.012 A 
ATOM     12  C   UNL     1      16.312  34.960  10.329  1.00  0.00     0.007 A 
ATOM     13  C   UNL     1      17.102  32.701   9.930  1.00  0.00     0.007 A 
ATOM     14  C   UNL     1      15.888  35.041   9.000  1.00  0.00     0.000 A 
ATOM     15  C   UNL     1      16.670  32.788   8.603  1.00  0.00     0.000 A 
ATOM     16  C   UNL     1      16.069  33.958   8.136  1.00  0.00     0.000 A 
ENDBRANCH   2  11
ENDBRANCH   1   2
BRANCH   1  17
ATOM     17  C   UNL     1      19.553  32.408  12.846  1.00  0.00     0.019 C 
BRANCH  17  18
ATOM     18  C   UNL     1      19.789  32.355  14.371  1.00  0.00     0.084 C 
BRANCH  18  19
ATOM     19  N   UNL     1      19.607  33.653  15.061  1.00  0.00    -0.303 NA
ATOM     20  C   UNL     1      20.738  34.582  14.889  1.00  0.00     0.084 C 
ATOM     21  C   UNL     1      19.204  33.498  16.481  1.00  0.00     0.084 C 
ATOM     22  C   UNL     1      20.315  36.012  15.278  1.00  0.00     0.016 C 
ATOM     23  C   UNL     1      19.277  34.829  17.261  1.00  0.00     0.016 C 
ATOM     24  C   UNL     1      19.181  36.031  16.316  1.00  0.00     0.003 C 
ENDBRANCH  18  19
ENDBRANCH  17  18
ENDBRANCH   1  17
TORSDOF 7
ENDMDL
MODEL 9
REMARK VINA RESULT:    -7.715      4.354      6.812
REMARK INTER + INTRA:         -11.747
REMARK INTER:                  -9.626
REMARK INTRA:                  -2.121
REMARK UNBOUND:                -1.100
REMARK SMILES OC(CCCN1CCCCC1)(c1ccccc1)c1ccccc1
REMARK SMILES IDX 3 1 2 2 1 3 12 5 13 6 17 7 14 8 16 9 15 10 18 11 19 12 23 13
REMARK SMILES IDX 20 14 22 15 21 16 4 17 5 18 6 19 7 20 11 21 8 22 10 23 9 24
REMARK H PARENT 1 4
REMARK Flexibility Score: inf
ROOT
ATOM      1  C   UNL     1      18.903  36.061  15.271  1.00  0.00     0.046 C 
ENDROOT
BRANCH   1   2
ATOM      2  C   UNL     1      18.542  34.555  15.447  1.00  0.00     0.115 C 
BRANCH   2   3
ATOM      3  O   UNL     1      19.226  34.092  16.591  1.00  0.00    -0.380 OA
ATOM      4  H   UNL     1      19.977  34.716  16.780  1.00  0.00     0.212 HD
ENDBRANCH   2   3
BRANCH   2   5
ATOM      5  C   UNL     1      18.998  33.700  14.240  1.00  0.00    -0.012 A 
ATOM      6  C   UNL     1      19.438  32.374  14.457  1.00  0.00     0.007 A 
ATOM      7  C   UNL     1      19.070  34.213  12.921  1.00  0.00     0.007 A 
ATOM      8  C   UNL     1      19.853  31.571  13.391  1.00  0.00     0.000 A 
ATOM      9  C   UNL     1      19.496  33.405  11.862  1.00  0.00     0.000 A 
ATOM     10  C   UNL     1      19.876  32.082  12.096  1.00  0.00     0.000 A 
ENDBRANCH   2   5
BRANCH   2  11
ATOM     11  C   UNL     1      17.019  34.440  15.629  1.00  0.00    -0.012 A 
ATOM     12  C   UNL     1      16.475  34.251  16.918  1.00  0.00     0.007 A 
ATOM     13  C   UNL     1      16.142  34.427  14.522  1.00  0.00     0.007 A 
ATOM     14  C   UNL     1      15.098  34.099  17.094  1.00  0.00     0.000 A 
ATOM     15  C   UNL     1      14.765  34.269  14.706  1.00  0.00     0.000 A 
ATOM     16  C   UNL     1      14.242  34.112  15.990  1.00  0.00     0.000 A 
ENDBRANCH   2  11
ENDBRANCH   1   2
BRANCH   1  17
ATOM     17  C   UNL     1      20.201  36.489  15.984  1.00  0.00     0.019 C 
BRANCH  17  18
ATOM     18  C   UNL     1      21.421  36.316  15.054  1.00  0.00     0.084 C 
BRANCH  18  19
ATOM     19  N   UNL     1      22.013  34.959  15.070  1.00  0.00    -0.303 NA
ATOM     20  C   UNL     1      22.868  34.698  16.241  1.00  0.00     0.084 C 
ATOM     21  C   UNL     1      22.672  34.602  13.790  1.00  0.00     0.084 C 
ATOM     22  C   UNL     1      23.110  33.184  16.397  1.00  0.00     0.016 C 
ATOM     23  C   UNL     1      23.511  33.311  13.900  1.00  0.00     0.016 C 
ATOM     24  C   UNL     1      23.027  32.432  15.057  1.00  0.00     0.003 C 
ENDBRANCH  18  19
ENDBRANCH  17  18
ENDBRANCH   1  17
TORSDOF 7
ENDMDL
MODEL 10
REMARK VINA RESULT:    -7.705      2.740      7.016
REMARK INTER + INTRA:         -11.733
REMARK INTER:                 -10.509
REMARK INTRA:                  -1.224
REMARK UNBOUND:                -1.100
REMARK SMILES OC(CCCN1CCCCC1)(c1ccccc1)c1ccccc1
REMARK SMILES IDX 3 1 2 2 1 3 12 5 13 6 17 7 14 8 16 9 15 10 18 11 19 12 23 13
REMARK SMILES IDX 20 14 22 15 21 16 4 17 5 18 6 19 7 20 11 21 8 22 10 23 9 24
REMARK H PARENT 1 4
REMARK Flexibility Score: inf
ROOT
ATOM      1  C   UNL     1      16.413  34.296  12.221  1.00  0.00     0.046 C 
ENDROOT
BRANCH   1   2
ATOM      2  C   UNL     1      17.203  33.037  11.755  1.00  0.00     0.115 C 
BRANCH   2   3
ATOM      3  O   UNL     1      16.519  31.906  12.250  1.00  0.00    -0.380 OA
ATOM      4  H   UNL     1      16.056  31.464  11.489  1.00  0.00     0.212 HD
ENDBRANCH   2   3
BRANCH   2   5
ATOM      5  C   UNL     1      18.644  33.008  12.320  1.00  0.00    -0.012 A 
ATOM      6  C   UNL     1      18.960  32.112  13.367  1.00  0.00     0.007 A 
ATOM      7  C   UNL     1      19.655  33.900  11.885  1.00  0.00     0.007 A 
ATOM      8  C   UNL     1      20.251  32.056  13.900  1.00  0.00     0.000 A 
ATOM      9  C   UNL     1      20.942  33.843  12.431  1.00  0.00     0.000 A 
ATOM     10  C   UNL     1      21.242  32.914  13.428  1.00  0.00     0.000 A 
ENDBRANCH   2   5
BRANCH   2  11
ATOM     11  C   UNL     1      17.240  33.030  10.217  1.00  0.00    -0.012 A 
ATOM     12  C   UNL     1      16.454  33.950   9.489  1.00  0.00     0.007 A 
ATOM     13  C   UNL     1      17.976  32.061   9.500  1.00  0.00     0.007 A 
ATOM     14  C   UNL     1      16.442  33.927   8.092  1.00  0.00     0.000 A 
ATOM     15  C   UNL     1      17.955  32.040   8.102  1.00  0.00     0.000 A 
ATOM     16  C   UNL     1      17.194  32.975   7.398  1.00  0.00     0.000 A 
ENDBRANCH   2  11
ENDBRANCH   1   2
BRANCH   1  17
ATOM     17  C   UNL     1      15.916  34.228  13.679  1.00  0.00     0.019 C 
BRANCH  17  18
ATOM     18  C   UNL     1      16.876  34.983  14.623  1.00  0.00     0.084 C 
BRANCH  18  19
ATOM     19  N   UNL     1      16.278  35.366  15.922  1.00  0.00    -0.303 NA
ATOM     20  C   UNL     1      17.162  35.129  17.077  1.00  0.00     0.084 C 
ATOM     21  C   UNL     1      14.918  34.805  16.118  1.00  0.00     0.084 C 
ATOM     22  C   UNL     1      16.650  35.904  18.307  1.00  0.00     0.016 C 
ATOM     23  C   UNL     1      14.413  34.979  17.566  1.00  0.00     0.016 C 
ATOM     24  C   UNL     1      15.131  36.137  18.268  1.00  0.00     0.003 C 
ENDBRANCH  18  19
ENDBRANCH  17  18
ENDBRANCH   1  17
TORSDOF 7
ENDMDL
MODEL 11
REMARK VINA RESULT:    -7.638      2.818      6.490
REMARK INTER + INTRA:         -11.641
REMARK INTER:                 -10.609
REMARK INTRA:                  -1.032
REMARK UNBOUND:                -1.100
REMARK SMILES OC(CCCN1CCCCC1)(c1ccccc1)c1ccccc1
REMARK SMILES IDX 3 1 2 2 1 3 12 5 13 6 17 7 14 8 16 9 15 10 18 11 19 12 23 13
REMARK SMILES IDX 20 14 22 15 21 16 4 17 5 18 6 19 7 20 11 21 8 22 10 23 9 24
REMARK H PARENT 1 4
REMARK Flexibility Score: inf
ROOT
ATOM      1  C   UNL     1      19.498  33.882  11.942  1.00  0.00     0.046 C 
ENDROOT
BRANCH   1   2
ATOM      2  C   UNL     1      18.049  33.310  11.911  1.00  0.00     0.115 C 
BRANCH   2   3
ATOM      3  O   UNL     1      18.150  31.906  12.022  1.00  0.00    -0.380 OA
ATOM      4  H   UNL     1      17.303  31.563  12.413  1.00  0.00     0.212 HD
ENDBRANCH   2   3
BRANCH   2   5
ATOM      5  C   UNL     1      17.323  33.632  10.583  1.00  0.00    -0.012 A 
ATOM      6  C   UNL     1      17.457  32.749   9.487  1.00  0.00     0.007 A 
ATOM      7  C   UNL     1      16.581  34.823  10.385  1.00  0.00     0.007 A 
ATOM      8  C   UNL     1      16.813  33.006   8.273  1.00  0.00     0.000 A 
ATOM      9  C   UNL     1      15.948  35.076   9.164  1.00  0.00     0.000 A 
ATOM     10  C   UNL     1      16.054  34.163   8.114  1.00  0.00     0.000 A 
ENDBRANCH   2   5
BRANCH   2  11
ATOM     11  C   UNL     1      17.269  33.903  13.096  1.00  0.00    -0.012 A 
ATOM     12  C   UNL     1      17.953  34.613  14.107  1.00  0.00     0.007 A 
ATOM     13  C   UNL     1      15.883  33.679  13.254  1.00  0.00     0.007 A 
ATOM     14  C   UNL     1      17.264  35.119  15.212  1.00  0.00     0.000 A 
ATOM     15  C   UNL     1      15.202  34.183  14.366  1.00  0.00     0.000 A 
ATOM     16  C   UNL     1      15.890  34.907  15.341  1.00  0.00     0.000 A 
ENDBRANCH   2  11
ENDBRANCH   1   2
BRANCH   1  17
ATOM     17  C   UNL     1      20.593  32.821  12.179  1.00  0.00     0.019 C 
BRANCH  17  18
ATOM     18  C   UNL     1      21.509  33.230  13.352  1.00  0.00     0.084 C 
BRANCH  18  19
ATOM     19  N   UNL     1      22.916  33.481  12.968  1.00  0.00    -0.303 NA
ATOM     20  C   UNL     1      23.136  34.795  12.340  1.00  0.00     0.084 C 
ATOM     21  C   UNL     1      23.507  32.367  12.185  1.00  0.00     0.084 C 
ATOM     22  C   UNL     1      24.637  35.142  12.341  1.00  0.00     0.016 C 
ATOM     23  C   UNL     1      24.869  32.743  11.562  1.00  0.00     0.016 C 
ATOM     24  C   UNL     1      25.532  33.891  12.332  1.00  0.00     0.003 C 
ENDBRANCH  18  19
ENDBRANCH  17  18
ENDBRANCH   1  17
TORSDOF 7
ENDMDL
MODEL 12
REMARK VINA RESULT:    -7.634      4.154      7.529
REMARK INTER + INTRA:         -11.635
REMARK INTER:                  -9.451
REMARK INTRA:                  -2.184
REMARK UNBOUND:                -1.100
REMARK SMILES OC(CCCN1CCCCC1)(c1ccccc1)c1ccccc1
REMARK SMILES IDX 3 1 2 2 1 3 12 5 13 6 17 7 14 8 16 9 15 10 18 11 19 12 23 13
REMARK SMILES IDX 20 14 22 15 21 16 4 17 5 18 6 19 7 20 11 21 8 22 10 23 9 24
REMARK H PARENT 1 4
REMARK Flexibility Score: inf
ROOT
ATOM      1  C   UNL     1      19.333  33.873  16.539  1.00  0.00     0.046 C 
ENDROOT
BRANCH   1   2
ATOM      2  C   UNL     1      18.526  34.416  15.323  1.00  0.00     0.115 C 
BRANCH   2   3
ATOM      3  O   UNL     1      18.863  35.777  15.170  1.00  0.00    -0.380 OA
ATOM      4  H   UNL     1      18.053  36.267  14.864  1.00  0.00     0.212 HD
ENDBRANCH   2   3
BRANCH   2   5
ATOM      5  C   UNL     1      16.997  34.325  15.549  1.00  0.00    -0.012 A 
ATOM      6  C   UNL     1      16.498  34.184  16.864  1.00  0.00     0.007 A 
ATOM      7  C   UNL     1      16.065  34.300  14.482  1.00  0.00     0.007 A 
ATOM      8  C   UNL     1      15.124  34.103  17.107  1.00  0.00     0.000 A 
ATOM      9  C   UNL     1      14.693  34.209  14.734  1.00  0.00     0.000 A 
ATOM     10  C   UNL     1      14.223  34.123  16.046  1.00  0.00     0.000 A 
ENDBRANCH   2   5
BRANCH   2  11
ATOM     11  C   UNL     1      18.923  33.604  14.077  1.00  0.00    -0.012 A 
ATOM     12  C   UNL     1      19.507  32.328  14.224  1.00  0.00     0.007 A 
ATOM     13  C   UNL     1      18.804  34.143  12.776  1.00  0.00     0.007 A 
ATOM     14  C   UNL     1      19.914  31.598  13.104  1.00  0.00     0.000 A 
ATOM     15  C   UNL     1      19.219  33.409  11.661  1.00  0.00     0.000 A 
ATOM     16  C   UNL     1      19.768  32.136  11.823  1.00  0.00     0.000 A 
ENDBRANCH   2  11
ENDBRANCH   1   2
BRANCH   1  17
ATOM     17  C   UNL     1      20.349  34.876  17.124  1.00  0.00     0.019 C 
BRANCH  17  18
ATOM     18  C   UNL     1      21.786  34.518  16.689  1.00  0.00     0.084 C 
BRANCH  18  19
ATOM     19  N   UNL     1      22.046  34.694  15.242  1.00  0.00    -0.303 NA
ATOM     20  C   UNL     1      23.026  33.740  14.694  1.00  0.00     0.084 C 
ATOM     21  C   UNL     1      22.352  36.100  14.878  1.00  0.00     0.084 C 
ATOM     22  C   UNL     1      22.943  33.716  13.155  1.00  0.00     0.016 C 
ATOM     23  C   UNL     1      22.881  36.232  13.434  1.00  0.00     0.016 C 
ATOM     24  C   UNL     1      22.438  35.046  12.570  1.00  0.00     0.003 C 
ENDBRANCH  18  19
ENDBRANCH  17  18
ENDBRANCH   1  17
TORSDOF 7
ENDMDL
MODEL 13
REMARK VINA RESULT:    -7.632      2.766      6.564
REMARK INTER + INTRA:         -11.632
REMARK INTER:                 -10.549
REMARK INTRA:                  -1.083
REMARK UNBOUND:                -1.100
REMARK SMILES OC(CCCN1CCCCC1)(c1ccccc1)c1ccccc1
REMARK SMILES IDX 3 1 2 2 1 3 12 5 13 6 17 7 14 8 16 9 15 10 18 11 19 12 23 13
REMARK SMILES IDX 20 14 22 15 21 16 4 17 5 18 6 19 7 20 11 21 8 22 10 23 9 24
REMARK H PARENT 1 4
REMARK Flexibility Score: inf
ROOT
ATOM      1  C   UNL     1      18.532  32.567  13.768  1.00  0.00     0.046 C 
ENDROOT
BRANCH   1   2
ATOM      2  C   UNL     1      17.739  33.865  13.433  1.00  0.00     0.115 C 
BRANCH   2   3
ATOM      3  O   UNL     1      18.591  34.958  13.703  1.00  0.00    -0.380 OA
ATOM      4  H   UNL     1      18.343  35.334  14.590  1.00  0.00     0.212 HD
ENDBRANCH   2   3
BRANCH   2   5
ATOM      5  C   UNL     1      16.473  34.019  14.309  1.00  0.00    -0.012 A 
ATOM      6  C   UNL     1      16.613  34.326  15.682  1.00  0.00     0.007 A 
ATOM      7  C   UNL     1      15.165  33.791  13.813  1.00  0.00     0.007 A 
ATOM      8  C   UNL     1      15.492  34.476  16.504  1.00  0.00     0.000 A 
ATOM      9  C   UNL     1      14.050  33.934  14.645  1.00  0.00     0.000 A 
ATOM     10  C   UNL     1      14.213  34.288  15.985  1.00  0.00     0.000 A 
ENDBRANCH   2   5
BRANCH   2  11
ATOM     11  C   UNL     1      17.349  33.824  11.945  1.00  0.00    -0.012 A 
ATOM     12  C   UNL     1      16.747  34.949  11.342  1.00  0.00     0.007 A 
ATOM     13  C   UNL     1      17.494  32.648  11.176  1.00  0.00     0.007 A 
ATOM     14  C   UNL     1      16.346  34.912  10.004  1.00  0.00     0.000 A 
ATOM     15  C   UNL     1      17.085  32.615   9.840  1.00  0.00     0.000 A 
ATOM     16  C   UNL     1      16.518  33.747   9.252  1.00  0.00     0.000 A 
ENDBRANCH   2  11
ENDBRANCH   1   2
BRANCH   1  17
ATOM     17  C   UNL     1      20.041  32.787  13.997  1.00  0.00     0.019 C 
BRANCH  17  18
ATOM     18  C   UNL     1      20.850  32.389  12.744  1.00  0.00     0.084 C 
BRANCH  18  19
ATOM     19  N   UNL     1      21.979  33.296  12.435  1.00  0.00    -0.303 NA
ATOM     20  C   UNL     1      23.304  32.670  12.588  1.00  0.00     0.084 C 
ATOM     21  C   UNL     1      21.879  34.601  13.134  1.00  0.00     0.084 C 
ATOM     22  C   UNL     1      24.379  33.516  11.879  1.00  0.00     0.016 C 
ATOM     23  C   UNL     1      23.177  35.429  13.023  1.00  0.00     0.016 C 
ATOM     24  C   UNL     1      24.002  35.006  11.803  1.00  0.00     0.003 C 
ENDBRANCH  18  19
ENDBRANCH  17  18
ENDBRANCH   1  17
TORSDOF 7
ENDMDL
MODEL 14
REMARK VINA RESULT:    -7.622      3.997      6.823
REMARK INTER + INTRA:         -11.619
REMARK INTER:                  -9.460
REMARK INTRA:                  -2.158
REMARK UNBOUND:                -1.100
REMARK SMILES OC(CCCN1CCCCC1)(c1ccccc1)c1ccccc1
REMARK SMILES IDX 3 1 2 2 1 3 12 5 13 6 17 7 14 8 16 9 15 10 18 11 19 12 23 13
REMARK SMILES IDX 20 14 22 15 21 16 4 17 5 18 6 19 7 20 11 21 8 22 10 23 9 24
REMARK H PARENT 1 4
REMARK Flexibility Score: inf
ROOT
ATOM      1  C   UNL     1      16.849  35.341  16.400  1.00  0.00     0.046 C 
ENDROOT
BRANCH   1   2
ATOM      2  C   UNL     1      18.030  34.861  17.295  1.00  0.00     0.115 C 
BRANCH   2   3
ATOM      3  O   UNL     1      17.623  33.662  17.919  1.00  0.00    -0.380 OA
ATOM      4  H   UNL     1      17.224  33.890  18.801  1.00  0.00     0.212 HD
ENDBRANCH   2   3
BRANCH   2   5
ATOM      5  C   UNL     1      18.376  35.883  18.404  1.00  0.00    -0.012 A 
ATOM      6  C   UNL     1      17.454  36.911  18.712  1.00  0.00     0.007 A 
ATOM      7  C   UNL     1      19.619  35.886  19.084  1.00  0.00     0.007 A 
ATOM      8  C   UNL     1      17.730  37.850  19.710  1.00  0.00     0.000 A 
ATOM      9  C   UNL     1      19.890  36.835  20.075  1.00  0.00     0.000 A 
ATOM     10  C   UNL     1      18.942  37.808  20.395  1.00  0.00     0.000 A 
ENDBRANCH   2   5
BRANCH   2  11
ATOM     11  C   UNL     1      19.256  34.627  16.394  1.00  0.00    -0.012 A 
ATOM     12  C   UNL     1      19.604  35.582  15.415  1.00  0.00     0.007 A 
ATOM     13  C   UNL     1      19.999  33.427  16.457  1.00  0.00     0.007 A 
ATOM     14  C   UNL     1      20.687  35.362  14.560  1.00  0.00     0.000 A 
ATOM     15  C   UNL     1      21.078  33.212  15.593  1.00  0.00     0.000 A 
ATOM     16  C   UNL     1      21.426  34.181  14.650  1.00  0.00     0.000 A 
ENDBRANCH   2  11
ENDBRANCH   1   2
BRANCH   1  17
ATOM     17  C   UNL     1      16.060  34.200  15.727  1.00  0.00     0.019 C 
BRANCH  17  18
ATOM     18  C   UNL     1      15.775  34.528  14.246  1.00  0.00     0.084 C 
BRANCH  18  19
ATOM     19  N   UNL     1      16.886  34.200  13.324  1.00  0.00    -0.303 NA
ATOM     20  C   UNL     1      16.500  34.201  11.902  1.00  0.00     0.084 C 
ATOM     21  C   UNL     1      17.616  32.968  13.717  1.00  0.00     0.084 C 
ATOM     22  C   UNL     1      17.755  34.253  11.009  1.00  0.00     0.016 C 
ATOM     23  C   UNL     1      18.588  32.485  12.619  1.00  0.00     0.016 C 
ATOM     24  C   UNL     1      18.989  33.634  11.688  1.00  0.00     0.003 C 
ENDBRANCH  18  19
ENDBRANCH  17  18
ENDBRANCH   1  17
TORSDOF 7
ENDMDL
MODEL 15
REMARK VINA RESULT:    -7.593      2.146      3.094
REMARK INTER + INTRA:         -11.578
REMARK INTER:                 -10.772
REMARK INTRA:                  -0.807
REMARK UNBOUND:                -1.100
REMARK SMILES OC(CCCN1CCCCC1)(c1ccccc1)c1ccccc1
REMARK SMILES IDX 3 1 2 2 1 3 12 5 13 6 17 7 14 8 16 9 15 10 18 11 19 12 23 13
REMARK SMILES IDX 20 14 22 15 21 16 4 17 5 18 6 19 7 20 11 21 8 22 10 23 9 24
REMARK H PARENT 1 4
REMARK Flexibility Score: inf
ROOT
ATOM      1  C   UNL     1      17.861  32.783  13.490  1.00  0.00     0.046 C 
ENDROOT
BRANCH   1   2
ATOM      2  C   UNL     1      17.601  34.254  13.935  1.00  0.00     0.115 C 
BRANCH   2   3
ATOM      3  O   UNL     1      17.147  34.960  12.800  1.00  0.00    -0.380 OA
ATOM      4  H   UNL     1      16.641  35.758  13.112  1.00  0.00     0.212 HD
ENDBRANCH   2   3
BRANCH   2   5
ATOM      5  C   UNL     1      18.888  34.946  14.445  1.00  0.00    -0.012 A 
ATOM      6  C   UNL     1      18.780  36.113  15.236  1.00  0.00     0.007 A 
ATOM      7  C   UNL     1      20.187  34.505  14.091  1.00  0.00     0.007 A 
ATOM      8  C   UNL     1      19.920  36.763  15.718  1.00  0.00     0.000 A 
ATOM      9  C   UNL     1      21.322  35.168  14.569  1.00  0.00     0.000 A 
ATOM     10  C   UNL     1      21.188  36.288  15.391  1.00  0.00     0.000 A 
ENDBRANCH   2   5
BRANCH   2  11
ATOM     11  C   UNL     1      16.534  34.243  15.043  1.00  0.00    -0.012 A 
ATOM     12  C   UNL     1      16.909  33.994  16.381  1.00  0.00     0.007 A 
ATOM     13  C   UNL     1      15.160  34.386  14.746  1.00  0.00     0.007 A 
ATOM     14  C   UNL     1      15.945  33.937  17.391  1.00  0.00     0.000 A 
ATOM     15  C   UNL     1      14.201  34.322  15.761  1.00  0.00     0.000 A 
ATOM     16  C   UNL     1      14.593  34.103  17.083  1.00  0.00     0.000 A 
ENDBRANCH   2  11
ENDBRANCH   1   2
BRANCH   1  17
ATOM     17  C   UNL     1      17.051  32.343  12.254  1.00  0.00     0.019 C 
BRANCH  17  18
ATOM     18  C   UNL     1      17.948  32.290  10.999  1.00  0.00     0.084 C 
BRANCH  18  19
ATOM     19  N   UNL     1      17.205  32.303   9.718  1.00  0.00    -0.303 NA
ATOM     20  C   UNL     1      17.952  31.714   8.592  1.00  0.00     0.084 C 
ATOM     21  C   UNL     1      16.639  33.636   9.394  1.00  0.00     0.084 C 
ATOM     22  C   UNL     1      16.995  31.400   7.426  1.00  0.00     0.016 C 
ATOM     23  C   UNL     1      16.104  33.711   7.947  1.00  0.00     0.016 C 
ATOM     24  C   UNL     1      15.761  32.318   7.409  1.00  0.00     0.003 C 
ENDBRANCH  18  19
ENDBRANCH  17  18
ENDBRANCH   1  17
TORSDOF 7
ENDMDL
