MODEL 1
REMARK VINA RESULT:    -4.605      0.000      0.000
REMARK INTER + INTRA:          -5.973
REMARK INTER:                  -5.682
REMARK INTRA:                  -0.292
REMARK UNBOUND:                -0.292
REMARK SMILES CC(C[N+](C)(C)C)OC(N)=O
REMARK SMILES IDX 1 1 2 2 3 3 4 4 5 5 6 6 7 7 8 8 9 9 10 10 11 11
REMARK H PARENT 10 12 10 13
REMARK Flexibility Score: inf
ROOT
ATOM      1  C   UNL     1      14.257  30.135   7.335  1.00  0.00     0.059 C 
ATOM      2  C   UNL     1      15.658  30.678   7.617  1.00  0.00     0.230 C 
ENDROOT
BRANCH   2   3
ATOM      3  C   UNL     1      15.758  31.645   8.839  1.00  0.00     0.308 C 
BRANCH   3   4
ATOM      4  N   UNL     1      16.884  32.640   8.893  1.00  0.00    -0.328 N 
ATOM      5  C   UNL     1      16.509  33.851   9.668  1.00  0.00     0.334 C 
ATOM      6  C   UNL     1      17.161  33.077   7.500  1.00  0.00     0.334 C 
ATOM      7  C   UNL     1      18.132  32.064   9.445  1.00  0.00     0.334 C 
ENDBRANCH   3   4
ENDBRANCH   2   3
BRANCH   2   8
ATOM      8  O   UNL     1      16.584  29.594   7.703  1.00  0.00    -0.441 OA
BRANCH   8   9
ATOM      9  C   UNL     1      17.420  29.197   6.653  1.00  0.00     0.404 C 
ATOM     10  N   UNL     1      17.260  27.902   6.082  1.00  0.00    -0.335 N 
ATOM     11  O   UNL     1      18.308  29.972   6.205  1.00  0.00    -0.225 OA
ATOM     12  H   UNL     1      16.528  27.253   6.449  1.00  0.00     0.163 HD
ATOM     13  H   UNL     1      17.872  27.589   5.296  1.00  0.00     0.163 HD
ENDBRANCH   8   9
ENDBRANCH   2   8
TORSDOF 4
ENDMDL
MODEL 2
REMARK VINA RESULT:    -4.551      1.996      2.734
REMARK INTER + INTRA:          -5.907
REMARK INTER:                  -5.706
REMARK INTRA:                  -0.201
REMARK UNBOUND:                -0.292
REMARK SMILES CC(C[N+](C)(C)C)OC(N)=O
REMARK SMILES IDX 1 1 2 2 3 3 4 4 5 5 6 6 7 7 8 8 9 9 10 10 11 11
REMARK H PARENT 10 12 10 13
REMARK Flexibility Score: inf
ROOT
ATOM      1  C   UNL     1      17.707  29.166   6.237  1.00  0.00     0.059 C 
ATOM      2  C   UNL     1      16.890  29.855   7.330  1.00  0.00     0.230 C 
ENDROOT
BRANCH   2   3
ATOM      3  C   UNL     1      16.290  31.241   6.930  1.00  0.00     0.308 C 
BRANCH   3   4
ATOM      4  N   UNL     1      16.492  32.416   7.846  1.00  0.00    -0.328 N 
ATOM      5  C   UNL     1      15.656  33.576   7.442  1.00  0.00     0.334 C 
ATOM      6  C   UNL     1      17.913  32.834   7.728  1.00  0.00     0.334 C 
ATOM      7  C   UNL     1      16.233  32.088   9.267  1.00  0.00     0.334 C 
ENDBRANCH   3   4
ENDBRANCH   2   3
BRANCH   2   8
ATOM      8  O   UNL     1      15.899  28.955   7.828  1.00  0.00    -0.441 OA
BRANCH   8   9
ATOM      9  C   UNL     1      14.559  28.973   7.427  1.00  0.00     0.404 C 
ATOM     10  N   UNL     1      13.606  29.699   8.198  1.00  0.00    -0.335 N 
ATOM     11  O   UNL     1      14.185  28.358   6.391  1.00  0.00    -0.225 OA
ATOM     12  H   UNL     1      13.907  30.209   9.058  1.00  0.00     0.163 HD
ATOM     13  H   UNL     1      12.602  29.726   7.912  1.00  0.00     0.163 HD
ENDBRANCH   8   9
ENDBRANCH   2   8
TORSDOF 4
ENDMDL
MODEL 3
REMARK VINA RESULT:    -4.420      2.312      3.026
REMARK INTER + INTRA:          -5.745
REMARK INTER:                  -5.496
REMARK INTRA:                  -0.249
REMARK UNBOUND:                -0.292
REMARK SMILES CC(C[N+](C)(C)C)OC(N)=O
REMARK SMILES IDX 1 1 2 2 3 3 4 4 5 5 6 6 7 7 8 8 9 9 10 10 11 11
REMARK H PARENT 10 12 10 13
REMARK Flexibility Score: inf
ROOT
ATOM      1  C   UNL     1      17.815  31.211   7.500  1.00  0.00     0.059 C 
ATOM      2  C   UNL     1      16.688  31.858   8.305  1.00  0.00     0.230 C 
ENDROOT
BRANCH   2   3
ATOM      3  C   UNL     1      16.938  33.346   8.711  1.00  0.00     0.308 C 
BRANCH   3   4
ATOM      4  N   UNL     1      16.936  33.715  10.168  1.00  0.00    -0.328 N 
ATOM      5  C   UNL     1      16.178  32.731  10.982  1.00  0.00     0.334 C 
ATOM      6  C   UNL     1      16.240  35.022  10.297  1.00  0.00     0.334 C 
ATOM      7  C   UNL     1      18.301  33.872  10.722  1.00  0.00     0.334 C 
ENDBRANCH   3   4
ENDBRANCH   2   3
BRANCH   2   8
ATOM      8  O   UNL     1      15.446  31.681   7.622  1.00  0.00    -0.441 OA
BRANCH   8   9
ATOM      9  C   UNL     1      14.633  30.551   7.763  1.00  0.00     0.404 C 
ATOM     10  N   UNL     1      14.221  30.143   9.065  1.00  0.00    -0.335 N 
ATOM     11  O   UNL     1      14.257  29.894   6.755  1.00  0.00    -0.225 OA
ATOM     12  H   UNL     1      14.530  30.681   9.905  1.00  0.00     0.163 HD
ATOM     13  H   UNL     1      13.612  29.305   9.190  1.00  0.00     0.163 HD
ENDBRANCH   8   9
ENDBRANCH   2   8
TORSDOF 4
ENDMDL
MODEL 4
REMARK VINA RESULT:    -4.412      2.068      4.379
REMARK INTER + INTRA:          -5.736
REMARK INTER:                  -5.552
REMARK INTRA:                  -0.184
REMARK UNBOUND:                -0.292
REMARK SMILES CC(C[N+](C)(C)C)OC(N)=O
REMARK SMILES IDX 1 1 2 2 3 3 4 4 5 5 6 6 7 7 8 8 9 9 10 10 11 11
REMARK H PARENT 10 12 10 13
REMARK Flexibility Score: inf
ROOT
ATOM      1  C   UNL     1      18.718  30.875   6.380  1.00  0.00     0.059 C 
ATOM      2  C   UNL     1      17.419  30.627   7.147  1.00  0.00     0.230 C 
ENDROOT
BRANCH   2   3
ATOM      3  C   UNL     1      16.697  29.285   6.804  1.00  0.00     0.308 C 
BRANCH   3   4
ATOM      4  N   UNL     1      15.223  29.160   7.071  1.00  0.00    -0.328 N 
ATOM      5  C   UNL     1      14.952  28.308   8.258  1.00  0.00     0.334 C 
ATOM      6  C   UNL     1      14.611  28.486   5.897  1.00  0.00     0.334 C 
ATOM      7  C   UNL     1      14.556  30.472   7.239  1.00  0.00     0.334 C 
ENDBRANCH   3   4
ENDBRANCH   2   3
BRANCH   2   8
ATOM      8  O   UNL     1      17.651  30.777   8.548  1.00  0.00    -0.441 OA
BRANCH   8   9
ATOM      9  C   UNL     1      17.909  32.005   9.168  1.00  0.00     0.404 C 
ATOM     10  N   UNL     1      18.838  32.065  10.246  1.00  0.00    -0.335 N 
ATOM     11  O   UNL     1      17.333  33.059   8.781  1.00  0.00    -0.225 OA
ATOM     12  H   UNL     1      19.317  31.196  10.574  1.00  0.00     0.163 HD
ATOM     13  H   UNL     1      19.045  32.972  10.719  1.00  0.00     0.163 HD
ENDBRANCH   8   9
ENDBRANCH   2   8
TORSDOF 4
ENDMDL
MODEL 5
REMARK VINA RESULT:    -4.392      1.979      2.916
REMARK INTER + INTRA:          -5.711
REMARK INTER:                  -5.502
REMARK INTRA:                  -0.209
REMARK UNBOUND:                -0.292
REMARK SMILES CC(C[N+](C)(C)C)OC(N)=O
REMARK SMILES IDX 1 1 2 2 3 3 4 4 5 5 6 6 7 7 8 8 9 9 10 10 11 11
REMARK H PARENT 10 12 10 13
REMARK Flexibility Score: inf
ROOT
ATOM      1  C   UNL     1      15.759  34.134   7.806  1.00  0.00     0.059 C 
ATOM      2  C   UNL     1      16.647  32.981   8.274  1.00  0.00     0.230 C 
ENDROOT
BRANCH   2   3
ATOM      3  C   UNL     1      16.416  32.528   9.751  1.00  0.00     0.308 C 
BRANCH   3   4
ATOM      4  N   UNL     1      17.422  32.914  10.799  1.00  0.00    -0.328 N 
ATOM      5  C   UNL     1      18.684  32.143  10.658  1.00  0.00     0.334 C 
ATOM      6  C   UNL     1      16.841  32.570  12.123  1.00  0.00     0.334 C 
ATOM      7  C   UNL     1      17.723  34.365  10.799  1.00  0.00     0.334 C 
ENDBRANCH   3   4
ENDBRANCH   2   3
BRANCH   2   8
ATOM      8  O   UNL     1      16.553  31.896   7.350  1.00  0.00    -0.441 OA
BRANCH   8   9
ATOM      9  C   UNL     1      17.385  30.772   7.382  1.00  0.00     0.404 C 
ATOM     10  N   UNL     1      18.721  30.875   6.899  1.00  0.00    -0.335 N 
ATOM     11  O   UNL     1      16.968  29.671   7.835  1.00  0.00    -0.225 OA
ATOM     12  H   UNL     1      19.072  31.782   6.519  1.00  0.00     0.163 HD
ATOM     13  H   UNL     1      19.358  30.047   6.917  1.00  0.00     0.163 HD
ENDBRANCH   8   9
ENDBRANCH   2   8
TORSDOF 4
ENDMDL
MODEL 6
REMARK VINA RESULT:    -4.380      2.005      2.618
REMARK INTER + INTRA:          -5.695
REMARK INTER:                  -5.550
REMARK INTRA:                  -0.145
REMARK UNBOUND:                -0.292
REMARK SMILES CC(C[N+](C)(C)C)OC(N)=O
REMARK SMILES IDX 1 1 2 2 3 3 4 4 5 5 6 6 7 7 8 8 9 9 10 10 11 11
REMARK H PARENT 10 12 10 13
REMARK Flexibility Score: inf
ROOT
ATOM      1  C   UNL     1      16.784  31.630   6.848  1.00  0.00     0.059 C 
ATOM      2  C   UNL     1      16.437  31.592   8.336  1.00  0.00     0.230 C 
ENDROOT
BRANCH   2   3
ATOM      3  C   UNL     1      16.426  32.984   9.046  1.00  0.00     0.308 C 
BRANCH   3   4
ATOM      4  N   UNL     1      17.064  33.117  10.401  1.00  0.00    -0.328 N 
ATOM      5  C   UNL     1      17.442  34.524  10.692  1.00  0.00     0.334 C 
ATOM      6  C   UNL     1      18.316  32.318  10.385  1.00  0.00     0.334 C 
ATOM      7  C   UNL     1      16.207  32.597  11.492  1.00  0.00     0.334 C 
ENDBRANCH   3   4
ENDBRANCH   2   3
BRANCH   2   8
ATOM      8  O   UNL     1      15.217  30.874   8.526  1.00  0.00    -0.441 OA
BRANCH   8   9
ATOM      9  C   UNL     1      14.854  29.744   7.786  1.00  0.00     0.404 C 
ATOM     10  N   UNL     1      15.457  28.488   8.083  1.00  0.00    -0.335 N 
ATOM     11  O   UNL     1      13.998  29.822   6.863  1.00  0.00    -0.225 OA
ATOM     12  H   UNL     1      16.168  28.416   8.845  1.00  0.00     0.163 HD
ATOM     13  H   UNL     1      15.197  27.633   7.544  1.00  0.00     0.163 HD
ENDBRANCH   8   9
ENDBRANCH   2   8
TORSDOF 4
ENDMDL
MODEL 7
REMARK VINA RESULT:    -4.277      9.898     11.978
REMARK INTER + INTRA:          -5.569
REMARK INTER:                  -5.253
REMARK INTRA:                  -0.315
REMARK UNBOUND:                -0.292
REMARK SMILES CC(C[N+](C)(C)C)OC(N)=O
REMARK SMILES IDX 1 1 2 2 3 3 4 4 5 5 6 6 7 7 8 8 9 9 10 10 11 11
REMARK H PARENT 10 12 10 13
REMARK Flexibility Score: inf
ROOT
ATOM      1  C   UNL     1       4.290  29.348   9.205  1.00  0.00     0.059 C 
ATOM      2  C   UNL     1       5.410  28.308   9.181  1.00  0.00     0.230 C 
ENDROOT
BRANCH   2   3
ATOM      3  C   UNL     1       5.096  27.019   8.356  1.00  0.00     0.308 C 
BRANCH   3   4
ATOM      4  N   UNL     1       5.233  25.677   9.019  1.00  0.00    -0.328 N 
ATOM      5  C   UNL     1       6.407  24.928   8.502  1.00  0.00     0.334 C 
ATOM      6  C   UNL     1       4.022  24.885   8.680  1.00  0.00     0.334 C 
ATOM      7  C   UNL     1       5.314  25.771  10.495  1.00  0.00     0.334 C 
ENDBRANCH   3   4
ENDBRANCH   2   3
BRANCH   2   8
ATOM      8  O   UNL     1       6.632  28.928   8.778  1.00  0.00    -0.441 OA
BRANCH   8   9
ATOM      9  C   UNL     1       7.835  28.809   9.482  1.00  0.00     0.404 C 
ATOM     10  N   UNL     1       8.717  29.925   9.557  1.00  0.00    -0.335 N 
ATOM     11  O   UNL     1       8.146  27.729  10.054  1.00  0.00    -0.225 OA
ATOM     12  H   UNL     1       8.467  30.823   9.084  1.00  0.00     0.163 HD
ATOM     13  H   UNL     1       9.617  29.857  10.080  1.00  0.00     0.163 HD
ENDBRANCH   8   9
ENDBRANCH   2   8
TORSDOF 4
ENDMDL
MODEL 8
REMARK VINA RESULT:    -4.271      8.258      9.799
REMARK INTER + INTRA:          -5.561
REMARK INTER:                  -5.253
REMARK INTRA:                  -0.308
REMARK UNBOUND:                -0.292
REMARK SMILES CC(C[N+](C)(C)C)OC(N)=O
REMARK SMILES IDX 1 1 2 2 3 3 4 4 5 5 6 6 7 7 8 8 9 9 10 10 11 11
REMARK H PARENT 10 12 10 13
REMARK Flexibility Score: inf
ROOT
ATOM      1  C   UNL     1      17.304  34.001  13.977  1.00  0.00     0.059 C 
ATOM      2  C   UNL     1      16.704  34.624  15.237  1.00  0.00     0.230 C 
ENDROOT
BRANCH   2   3
ATOM      3  C   UNL     1      17.533  35.796  15.853  1.00  0.00     0.308 C 
BRANCH   3   4
ATOM      4  N   UNL     1      17.830  35.784  17.327  1.00  0.00    -0.328 N 
ATOM      5  C   UNL     1      19.052  36.567  17.646  1.00  0.00     0.334 C 
ATOM      6  C   UNL     1      18.094  34.376  17.719  1.00  0.00     0.334 C 
ATOM      7  C   UNL     1      16.697  36.277  18.145  1.00  0.00     0.334 C 
ENDBRANCH   3   4
ENDBRANCH   2   3
BRANCH   2   8
ATOM      8  O   UNL     1      15.345  34.989  14.992  1.00  0.00    -0.441 OA
BRANCH   8   9
ATOM      9  C   UNL     1      14.248  34.344  15.574  1.00  0.00     0.404 C 
ATOM     10  N   UNL     1      14.335  33.892  16.922  1.00  0.00    -0.335 N 
ATOM     11  O   UNL     1      13.184  34.163  14.922  1.00  0.00    -0.225 OA
ATOM     12  H   UNL     1      15.214  34.036  17.468  1.00  0.00     0.163 HD
ATOM     13  H   UNL     1      13.525  33.411  17.374  1.00  0.00     0.163 HD
ENDBRANCH   8   9
ENDBRANCH   2   8
TORSDOF 4
ENDMDL
MODEL 9
REMARK VINA RESULT:    -4.253      8.066      9.554
REMARK INTER + INTRA:          -5.540
REMARK INTER:                  -5.256
REMARK INTRA:                  -0.283
REMARK UNBOUND:                -0.292
REMARK SMILES CC(C[N+](C)(C)C)OC(N)=O
REMARK SMILES IDX 1 1 2 2 3 3 4 4 5 5 6 6 7 7 8 8 9 9 10 10 11 11
REMARK H PARENT 10 12 10 13
REMARK Flexibility Score: inf
ROOT
ATOM      1  C   UNL     1      17.163  33.895  13.709  1.00  0.00     0.059 C 
ATOM      2  C   UNL     1      16.691  34.514  15.024  1.00  0.00     0.230 C 
ENDROOT
BRANCH   2   3
ATOM      3  C   UNL     1      17.612  35.642  15.590  1.00  0.00     0.308 C 
BRANCH   3   4
ATOM      4  N   UNL     1      17.999  35.609  17.042  1.00  0.00    -0.328 N 
ATOM      5  C   UNL     1      16.922  36.152  17.909  1.00  0.00     0.334 C 
ATOM      6  C   UNL     1      19.184  36.489  17.208  1.00  0.00     0.334 C 
ATOM      7  C   UNL     1      18.373  34.253  17.506  1.00  0.00     0.334 C 
ENDBRANCH   3   4
ENDBRANCH   2   3
BRANCH   2   8
ATOM      8  O   UNL     1      15.331  34.933  14.898  1.00  0.00    -0.441 OA
BRANCH   8   9
ATOM      9  C   UNL     1      14.257  34.290  15.522  1.00  0.00     0.404 C 
ATOM     10  N   UNL     1      14.397  33.832  16.863  1.00  0.00    -0.335 N 
ATOM     11  O   UNL     1      13.166  34.115  14.913  1.00  0.00    -0.225 OA
ATOM     12  H   UNL     1      15.298  33.970  17.373  1.00  0.00     0.163 HD
ATOM     13  H   UNL     1      13.605  33.352  17.346  1.00  0.00     0.163 HD
ENDBRANCH   8   9
ENDBRANCH   2   8
TORSDOF 4
ENDMDL
MODEL 10
REMARK VINA RESULT:    -4.232     10.118     12.086
REMARK INTER + INTRA:          -5.514
REMARK INTER:                  -5.260
REMARK INTRA:                  -0.253
REMARK UNBOUND:                -0.292
REMARK SMILES CC(C[N+](C)(C)C)OC(N)=O
REMARK SMILES IDX 1 1 2 2 3 3 4 4 5 5 6 6 7 7 8 8 9 9 10 10 11 11
REMARK H PARENT 10 12 10 13
REMARK Flexibility Score: inf
ROOT
ATOM      1  C   UNL     1       7.008  25.625   9.283  1.00  0.00     0.059 C 
ATOM      2  C   UNL     1       6.282  26.970   9.291  1.00  0.00     0.230 C 
ENDROOT
BRANCH   2   3
ATOM      3  C   UNL     1       4.735  26.884   9.490  1.00  0.00     0.308 C 
BRANCH   3   4
ATOM      4  N   UNL     1       3.830  27.368   8.391  1.00  0.00    -0.328 N 
ATOM      5  C   UNL     1       3.864  26.463   7.214  1.00  0.00     0.334 C 
ATOM      6  C   UNL     1       4.339  28.691   7.944  1.00  0.00     0.334 C 
ATOM      7  C   UNL     1       2.430  27.549   8.839  1.00  0.00     0.334 C 
ENDBRANCH   3   4
ENDBRANCH   2   3
BRANCH   2   8
ATOM      8  O   UNL     1       6.904  27.845  10.233  1.00  0.00    -0.441 OA
BRANCH   8   9
ATOM      9  C   UNL     1       7.951  28.718   9.913  1.00  0.00     0.404 C 
ATOM     10  N   UNL     1       7.765  29.689   8.887  1.00  0.00    -0.335 N 
ATOM     11  O   UNL     1       9.053  28.658  10.523  1.00  0.00    -0.225 OA
ATOM     12  H   UNL     1       6.856  29.743   8.375  1.00  0.00     0.163 HD
ATOM     13  H   UNL     1       8.533  30.350   8.637  1.00  0.00     0.163 HD
ENDBRANCH   8   9
ENDBRANCH   2   8
TORSDOF 4
ENDMDL
MODEL 11
REMARK VINA RESULT:    -4.197      2.207      4.430
REMARK INTER + INTRA:          -5.470
REMARK INTER:                  -5.346
REMARK INTRA:                  -0.124
REMARK UNBOUND:                -0.292
REMARK SMILES CC(C[N+](C)(C)C)OC(N)=O
REMARK SMILES IDX 1 1 2 2 3 3 4 4 5 5 6 6 7 7 8 8 9 9 10 10 11 11
REMARK H PARENT 10 12 10 13
REMARK Flexibility Score: inf
ROOT
ATOM      1  C   UNL     1      16.541  32.853   7.310  1.00  0.00     0.059 C 
ATOM      2  C   UNL     1      16.088  31.578   8.021  1.00  0.00     0.230 C 
ENDROOT
BRANCH   2   3
ATOM      3  C   UNL     1      16.812  30.273   7.561  1.00  0.00     0.308 C 
BRANCH   3   4
ATOM      4  N   UNL     1      15.996  29.153   6.978  1.00  0.00    -0.328 N 
ATOM      5  C   UNL     1      14.908  29.664   6.105  1.00  0.00     0.334 C 
ATOM      6  C   UNL     1      15.353  28.434   8.108  1.00  0.00     0.334 C 
ATOM      7  C   UNL     1      16.818  28.175   6.227  1.00  0.00     0.334 C 
ENDBRANCH   3   4
ENDBRANCH   2   3
BRANCH   2   8
ATOM      8  O   UNL     1      16.154  31.768   9.436  1.00  0.00    -0.441 OA
BRANCH   8   9
ATOM      9  C   UNL     1      17.235  32.369  10.091  1.00  0.00     0.404 C 
ATOM     10  N   UNL     1      18.481  31.683  10.163  1.00  0.00    -0.335 N 
ATOM     11  O   UNL     1      17.120  33.511  10.615  1.00  0.00    -0.225 OA
ATOM     12  H   UNL     1      18.583  30.736   9.734  1.00  0.00     0.163 HD
ATOM     13  H   UNL     1      19.299  32.117  10.645  1.00  0.00     0.163 HD
ENDBRANCH   8   9
ENDBRANCH   2   8
TORSDOF 4
ENDMDL
MODEL 12
REMARK VINA RESULT:    -4.137     10.803     11.910
REMARK INTER + INTRA:          -5.396
REMARK INTER:                  -5.124
REMARK INTRA:                  -0.272
REMARK UNBOUND:                -0.292
REMARK SMILES CC(C[N+](C)(C)C)OC(N)=O
REMARK SMILES IDX 1 1 2 2 3 3 4 4 5 5 6 6 7 7 8 8 9 9 10 10 11 11
REMARK H PARENT 10 12 10 13
REMARK Flexibility Score: inf
ROOT
ATOM      1  C   UNL     1       5.163  25.196  11.563  1.00  0.00     0.059 C 
ATOM      2  C   UNL     1       5.667  25.885  10.295  1.00  0.00     0.230 C 
ENDROOT
BRANCH   2   3
ATOM      3  C   UNL     1       5.699  27.445  10.361  1.00  0.00     0.308 C 
BRANCH   3   4
ATOM      4  N   UNL     1       5.403  28.236   9.117  1.00  0.00    -0.328 N 
ATOM      5  C   UNL     1       6.645  28.768   8.498  1.00  0.00     0.334 C 
ATOM      6  C   UNL     1       4.574  29.402   9.515  1.00  0.00     0.334 C 
ATOM      7  C   UNL     1       4.641  27.459   8.112  1.00  0.00     0.334 C 
ENDBRANCH   3   4
ENDBRANCH   2   3
BRANCH   2   8
ATOM      8  O   UNL     1       6.926  25.330   9.915  1.00  0.00    -0.441 OA
BRANCH   8   9
ATOM      9  C   UNL     1       7.130  24.587   8.746  1.00  0.00     0.404 C 
ATOM     10  N   UNL     1       8.403  23.998   8.503  1.00  0.00    -0.335 N 
ATOM     11  O   UNL     1       6.199  24.430   7.909  1.00  0.00    -0.225 OA
ATOM     12  H   UNL     1       9.180  24.125   9.190  1.00  0.00     0.163 HD
ATOM     13  H   UNL     1       8.573  23.438   7.638  1.00  0.00     0.163 HD
ENDBRANCH   8   9
ENDBRANCH   2   8
TORSDOF 4
ENDMDL
MODEL 13
REMARK VINA RESULT:    -4.012     10.729     12.602
REMARK INTER + INTRA:          -5.241
REMARK INTER:                  -5.051
REMARK INTRA:                  -0.190
REMARK UNBOUND:                -0.292
REMARK SMILES CC(C[N+](C)(C)C)OC(N)=O
REMARK SMILES IDX 1 1 2 2 3 3 4 4 5 5 6 6 7 7 8 8 9 9 10 10 11 11
REMARK H PARENT 10 12 10 13
REMARK Flexibility Score: inf
ROOT
ATOM      1  C   UNL     1       7.080  28.112   9.693  1.00  0.00     0.059 C 
ATOM      2  C   UNL     1       6.266  26.820   9.622  1.00  0.00     0.230 C 
ENDROOT
BRANCH   2   3
ATOM      3  C   UNL     1       5.553  26.565   8.256  1.00  0.00     0.308 C 
BRANCH   3   4
ATOM      4  N   UNL     1       4.062  26.735   8.168  1.00  0.00    -0.328 N 
ATOM      5  C   UNL     1       3.669  28.167   8.228  1.00  0.00     0.334 C 
ATOM      6  C   UNL     1       3.465  26.065   9.352  1.00  0.00     0.334 C 
ATOM      7  C   UNL     1       3.483  26.112   6.955  1.00  0.00     0.334 C 
ENDBRANCH   3   4
ENDBRANCH   2   3
BRANCH   2   8
ATOM      8  O   UNL     1       7.079  25.718  10.027  1.00  0.00    -0.441 OA
BRANCH   8   9
ATOM      9  C   UNL     1       7.053  24.462   9.409  1.00  0.00     0.404 C 
ATOM     10  N   UNL     1       8.111  24.091   8.531  1.00  0.00    -0.335 N 
ATOM     11  O   UNL     1       6.107  23.656   9.623  1.00  0.00    -0.225 OA
ATOM     12  H   UNL     1       8.897  24.755   8.347  1.00  0.00     0.163 HD
ATOM     13  H   UNL     1       8.110  23.157   8.063  1.00  0.00     0.163 HD
ENDBRANCH   8   9
ENDBRANCH   2   8
TORSDOF 4
ENDMDL
MODEL 14
REMARK VINA RESULT:    -4.000      7.748      9.200
REMARK INTER + INTRA:          -5.227
REMARK INTER:                  -4.982
REMARK INTRA:                  -0.246
REMARK UNBOUND:                -0.292
REMARK SMILES CC(C[N+](C)(C)C)OC(N)=O
REMARK SMILES IDX 1 1 2 2 3 3 4 4 5 5 6 6 7 7 8 8 9 9 10 10 11 11
REMARK H PARENT 10 12 10 13
REMARK Flexibility Score: inf
ROOT
ATOM      1  C   UNL     1      16.763  33.772  13.272  1.00  0.00     0.059 C 
ATOM      2  C   UNL     1      16.693  34.265  14.717  1.00  0.00     0.230 C 
ENDROOT
BRANCH   2   3
ATOM      3  C   UNL     1      17.921  35.109  15.186  1.00  0.00     0.308 C 
BRANCH   3   4
ATOM      4  N   UNL     1      18.697  34.661  16.393  1.00  0.00    -0.328 N 
ATOM      5  C   UNL     1      19.636  35.712  16.862  1.00  0.00     0.334 C 
ATOM      6  C   UNL     1      19.515  33.488  15.988  1.00  0.00     0.334 C 
ATOM      7  C   UNL     1      17.823  34.239  17.513  1.00  0.00     0.334 C 
ENDBRANCH   3   4
ENDBRANCH   2   3
BRANCH   2   8
ATOM      8  O   UNL     1      15.453  34.941  14.934  1.00  0.00    -0.441 OA
BRANCH   8   9
ATOM      9  C   UNL     1      14.336  34.347  15.532  1.00  0.00     0.404 C 
ATOM     10  N   UNL     1      14.257  34.276  16.953  1.00  0.00    -0.335 N 
ATOM     11  O   UNL     1      13.399  33.879  14.831  1.00  0.00    -0.225 OA
ATOM     12  H   UNL     1      15.031  34.660  17.541  1.00  0.00     0.163 HD
ATOM     13  H   UNL     1      13.430  33.840  17.417  1.00  0.00     0.163 HD
ENDBRANCH   8   9
ENDBRANCH   2   8
TORSDOF 4
ENDMDL
MODEL 15
REMARK VINA RESULT:    -3.977      3.135      4.519
REMARK INTER + INTRA:          -5.199
REMARK INTER:                  -5.027
REMARK INTRA:                  -0.172
REMARK UNBOUND:                -0.292
REMARK SMILES CC(C[N+](C)(C)C)OC(N)=O
REMARK SMILES IDX 1 1 2 2 3 3 4 4 5 5 6 6 7 7 8 8 9 9 10 10 11 11
REMARK H PARENT 10 12 10 13
REMARK Flexibility Score: inf
ROOT
ATOM      1  C   UNL     1      16.473  34.649  10.694  1.00  0.00     0.059 C 
ATOM      2  C   UNL     1      17.258  33.345  10.836  1.00  0.00     0.230 C 
ENDROOT
BRANCH   2   3
ATOM      3  C   UNL     1      17.423  32.831  12.302  1.00  0.00     0.308 C 
BRANCH   3   4
ATOM      4  N   UNL     1      18.634  33.247  13.089  1.00  0.00    -0.328 N 
ATOM      5  C   UNL     1      18.384  34.490  13.864  1.00  0.00     0.334 C 
ATOM      6  C   UNL     1      19.718  33.545  12.118  1.00  0.00     0.334 C 
ATOM      7  C   UNL     1      19.120  32.184  13.999  1.00  0.00     0.334 C 
ENDBRANCH   3   4
ENDBRANCH   2   3
BRANCH   2   8
ATOM      8  O   UNL     1      16.703  32.354   9.970  1.00  0.00    -0.441 OA
BRANCH   8   9
ATOM      9  C   UNL     1      17.273  31.979   8.748  1.00  0.00     0.404 C 
ATOM     10  N   UNL     1      17.354  32.931   7.692  1.00  0.00    -0.335 N 
ATOM     11  O   UNL     1      17.719  30.812   8.573  1.00  0.00    -0.225 OA
ATOM     12  H   UNL     1      16.984  33.898   7.828  1.00  0.00     0.163 HD
ATOM     13  H   UNL     1      17.778  32.670   6.774  1.00  0.00     0.163 HD
ENDBRANCH   8   9
ENDBRANCH   2   8
TORSDOF 4
ENDMDL
