MODEL 1
REMARK VINA RESULT:    -7.264      0.000      0.000
REMARK INTER + INTRA:         -10.195
REMARK INTER:                  -9.600
REMARK INTRA:                  -0.595
REMARK UNBOUND:                -0.595
REMARK SMILES C[N+]1(C)[C@@H]2C[C@@H](OC(=O)C(O)(c3cccs3)c3cccs3)C[C@H]1[C@@H]1O[C@@H]12
REMARK SMILES IDX 8 1 9 2 7 3 6 4 26 5 25 6 24 7 4 8 23 9 5 10 2 11 22 12 1 13
REMARK SMILES IDX 3 14 10 15 11 16 12 18 13 19 16 20 14 21 15 22 17 23 18 24
REMARK SMILES IDX 21 25 19 26 20 27
REMARK H PARENT 11 17
REMARK Flexibility Score: inf
ROOT
ATOM      1  C   UNL     1      18.918  35.427  15.830  1.00  0.00     0.349 C 
ATOM      2  O   UNL     1      18.776  36.653  15.564  1.00  0.00    -0.248 OA
ENDROOT
BRANCH   1   3
ATOM      3  O   UNL     1      19.851  34.656  15.125  1.00  0.00    -0.459 OA
BRANCH   3   4
ATOM      4  C   UNL     1      21.266  34.803  15.245  1.00  0.00     0.188 C 
ATOM      5  C   UNL     1      21.053  33.756  12.448  1.00  0.00     0.212 C 
ATOM      6  O   UNL     1      21.316  32.483  11.897  1.00  0.00    -0.357 OA
ATOM      7  C   UNL     1      21.133  32.542  13.291  1.00  0.00     0.212 C 
ATOM      8  C   UNL     1      22.281  34.605  12.860  1.00  0.00     0.221 C 
ATOM      9  C   UNL     1      22.404  32.738  14.145  1.00  0.00     0.221 C 
ATOM     10  C   UNL     1      21.788  35.563  13.983  1.00  0.00     0.113 C 
ATOM     11  N   UNL     1      23.297  33.651  13.377  1.00  0.00    -0.319 N 
ATOM     12  C   UNL     1      21.924  33.399  15.471  1.00  0.00     0.113 C 
ATOM     13  C   UNL     1      24.379  34.278  14.196  1.00  0.00     0.334 C 
ATOM     14  C   UNL     1      23.991  32.933  12.253  1.00  0.00     0.334 C 
ENDBRANCH   3   4
ENDBRANCH   1   3
BRANCH   1  15
ATOM     15  C   UNL     1      18.079  34.800  16.919  1.00  0.00     0.231 C 
BRANCH  15  16
ATOM     16  O   UNL     1      18.638  33.538  17.201  1.00  0.00    -0.369 OA
ATOM     17  H   UNL     1      18.547  33.365  18.176  1.00  0.00     0.213 HD
ENDBRANCH  15  16
BRANCH  15  18
ATOM     18  C   UNL     1      18.116  35.673  18.162  1.00  0.00     0.053 A 
ATOM     19  C   UNL     1      17.267  36.738  18.463  1.00  0.00     0.019 A 
ATOM     20  S   UNL     1      19.345  35.654  19.315  1.00  0.00    -0.145 S 
ATOM     21  C   UNL     1      17.636  37.439  19.618  1.00  0.00     0.012 A 
ATOM     22  C   UNL     1      18.787  36.953  20.221  1.00  0.00     0.065 A 
ENDBRANCH  15  18
BRANCH  15  23
ATOM     23  C   UNL     1      16.649  34.624  16.436  1.00  0.00     0.053 A 
ATOM     24  C   UNL     1      15.586  34.081  17.160  1.00  0.00     0.019 A 
ATOM     25  S   UNL     1      16.111  34.888  14.860  1.00  0.00    -0.145 S 
ATOM     26  C   UNL     1      14.409  33.947  16.413  1.00  0.00     0.012 A 
ATOM     27  C   UNL     1      14.534  34.361  15.094  1.00  0.00     0.065 A 
ENDBRANCH  15  23
ENDBRANCH   1  15
TORSDOF 6
ENDMDL
MODEL 2
REMARK VINA RESULT:    -7.079      2.071      4.022
REMARK INTER + INTRA:          -9.950
REMARK INTER:                  -9.152
REMARK INTRA:                  -0.798
REMARK UNBOUND:                -0.595
REMARK SMILES C[N+]1(C)[C@@H]2C[C@@H](OC(=O)C(O)(c3cccs3)c3cccs3)C[C@H]1[C@@H]1O[C@@H]12
REMARK SMILES IDX 8 1 9 2 7 3 6 4 26 5 25 6 24 7 4 8 23 9 5 10 2 11 22 12 1 13
REMARK SMILES IDX 3 14 10 15 11 16 12 18 13 19 16 20 14 21 15 22 17 23 18 24
REMARK SMILES IDX 21 25 19 26 20 27
REMARK H PARENT 11 17
REMARK Flexibility Score: inf
ROOT
ATOM      1  C   UNL     1      19.422  34.134  16.032  1.00  0.00     0.349 C 
ATOM      2  O   UNL     1      19.157  33.162  16.794  1.00  0.00    -0.248 OA
ENDROOT
BRANCH   1   3
ATOM      3  O   UNL     1      20.753  34.460  15.742  1.00  0.00    -0.459 OA
BRANCH   3   4
ATOM      4  C   UNL     1      21.553  33.778  14.776  1.00  0.00     0.188 C 
ATOM      5  C   UNL     1      23.338  36.089  15.442  1.00  0.00     0.212 C 
ATOM      6  O   UNL     1      23.646  37.273  14.738  1.00  0.00    -0.357 OA
ATOM      7  C   UNL     1      22.481  36.588  14.343  1.00  0.00     0.212 C 
ATOM      8  C   UNL     1      23.951  34.775  14.899  1.00  0.00     0.221 C 
ATOM      9  C   UNL     1      22.643  35.549  13.213  1.00  0.00     0.221 C 
ATOM     10  C   UNL     1      22.998  33.631  15.353  1.00  0.00     0.113 C 
ATOM     11  N   UNL     1      23.969  34.900  13.417  1.00  0.00    -0.319 N 
ATOM     12  C   UNL     1      21.479  34.532  13.404  1.00  0.00     0.113 C 
ATOM     13  C   UNL     1      24.134  33.607  12.685  1.00  0.00     0.334 C 
ATOM     14  C   UNL     1      25.096  35.783  12.959  1.00  0.00     0.334 C 
ENDBRANCH   3   4
ENDBRANCH   1   3
BRANCH   1  15
ATOM     15  C   UNL     1      18.292  34.937  15.432  1.00  0.00     0.231 C 
BRANCH  15  16
ATOM     16  O   UNL     1      18.804  36.215  15.131  1.00  0.00    -0.369 OA
ATOM     17  H   UNL     1      19.225  36.180  14.232  1.00  0.00     0.213 HD
ENDBRANCH  15  16
BRANCH  15  18
ATOM     18  C   UNL     1      17.802  34.263  14.162  1.00  0.00     0.053 A 
ATOM     19  C   UNL     1      16.857  34.759  13.262  1.00  0.00     0.019 A 
ATOM     20  S   UNL     1      18.150  32.676  13.717  1.00  0.00    -0.145 S 
ATOM     21  C   UNL     1      16.509  33.848  12.257  1.00  0.00     0.012 A 
ATOM     22  C   UNL     1      17.152  32.624  12.367  1.00  0.00     0.065 A 
ENDBRANCH  15  18
BRANCH  15  23
ATOM     23  C   UNL     1      17.158  35.069  16.435  1.00  0.00     0.053 A 
ATOM     24  C   UNL     1      15.904  34.462  16.360  1.00  0.00     0.019 A 
ATOM     25  S   UNL     1      17.136  36.123  17.750  1.00  0.00    -0.145 S 
ATOM     26  C   UNL     1      15.027  34.857  17.377  1.00  0.00     0.012 A 
ATOM     27  C   UNL     1      15.569  35.789  18.251  1.00  0.00     0.065 A 
ENDBRANCH  15  23
ENDBRANCH   1  15
TORSDOF 6
ENDMDL
MODEL 3
REMARK VINA RESULT:    -7.077      3.071      4.319
REMARK INTER + INTRA:          -9.947
REMARK INTER:                  -9.038
REMARK INTRA:                  -0.910
REMARK UNBOUND:                -0.595
REMARK SMILES C[N+]1(C)[C@@H]2C[C@@H](OC(=O)C(O)(c3cccs3)c3cccs3)C[C@H]1[C@@H]1O[C@@H]12
REMARK SMILES IDX 8 1 9 2 7 3 6 4 26 5 25 6 24 7 4 8 23 9 5 10 2 11 22 12 1 13
REMARK SMILES IDX 3 14 10 15 11 16 12 18 13 19 16 20 14 21 15 22 17 23 18 24
REMARK SMILES IDX 21 25 19 26 20 27
REMARK H PARENT 11 17
REMARK Flexibility Score: inf
ROOT
ATOM      1  C   UNL     1      20.926  32.911  12.765  1.00  0.00     0.349 C 
ATOM      2  O   UNL     1      21.013  32.024  11.870  1.00  0.00    -0.248 OA
ENDROOT
BRANCH   1   3
ATOM      3  O   UNL     1      21.990  33.794  12.989  1.00  0.00    -0.459 OA
BRANCH   3   4
ATOM      4  C   UNL     1      23.366  33.410  12.973  1.00  0.00     0.188 C 
ATOM      5  C   UNL     1      23.523  35.979  14.504  1.00  0.00     0.212 C 
ATOM      6  O   UNL     1      23.965  37.268  14.135  1.00  0.00    -0.357 OA
ATOM      7  C   UNL     1      23.646  36.386  13.086  1.00  0.00     0.212 C 
ATOM      8  C   UNL     1      24.614  34.898  14.701  1.00  0.00     0.221 C 
ATOM      9  C   UNL     1      24.805  35.532  12.530  1.00  0.00     0.221 C 
ATOM     10  C   UNL     1      23.924  33.530  14.428  1.00  0.00     0.113 C 
ATOM     11  N   UNL     1      25.669  35.176  13.690  1.00  0.00    -0.319 N 
ATOM     12  C   UNL     1      24.138  34.267  11.913  1.00  0.00     0.113 C 
ATOM     13  C   UNL     1      26.600  34.036  13.432  1.00  0.00     0.334 C 
ATOM     14  C   UNL     1      26.535  36.331  14.112  1.00  0.00     0.334 C 
ENDBRANCH   3   4
ENDBRANCH   1   3
BRANCH   1  15
ATOM     15  C   UNL     1      19.663  33.014  13.587  1.00  0.00     0.231 C 
BRANCH  15  16
ATOM     16  O   UNL     1      19.403  31.732  14.112  1.00  0.00    -0.369 OA
ATOM     17  H   UNL     1      18.566  31.776  14.647  1.00  0.00     0.213 HD
ENDBRANCH  15  16
BRANCH  15  18
ATOM     18  C   UNL     1      19.868  34.005  14.720  1.00  0.00     0.053 A 
ATOM     19  C   UNL     1      19.736  35.392  14.653  1.00  0.00     0.019 A 
ATOM     20  S   UNL     1      20.517  33.624  16.228  1.00  0.00    -0.145 S 
ATOM     21  C   UNL     1      20.125  36.049  15.828  1.00  0.00     0.012 A 
ATOM     22  C   UNL     1      20.588  35.195  16.817  1.00  0.00     0.065 A 
ENDBRANCH  15  18
BRANCH  15  23
ATOM     23  C   UNL     1      18.502  33.446  12.707  1.00  0.00     0.053 A 
ATOM     24  C   UNL     1      18.587  33.972  11.417  1.00  0.00     0.019 A 
ATOM     25  S   UNL     1      16.891  33.539  13.192  1.00  0.00    -0.145 S 
ATOM     26  C   UNL     1      17.352  34.380  10.895  1.00  0.00     0.012 A 
ATOM     27  C   UNL     1      16.290  34.200  11.770  1.00  0.00     0.065 A 
ENDBRANCH  15  23
ENDBRANCH   1  15
TORSDOF 6
ENDMDL
MODEL 4
REMARK VINA RESULT:    -7.075      0.589      3.336
REMARK INTER + INTRA:          -9.945
REMARK INTER:                  -9.465
REMARK INTRA:                  -0.480
REMARK UNBOUND:                -0.595
REMARK SMILES C[N+]1(C)[C@@H]2C[C@@H](OC(=O)C(O)(c3cccs3)c3cccs3)C[C@H]1[C@@H]1O[C@@H]12
REMARK SMILES IDX 8 1 9 2 7 3 6 4 26 5 25 6 24 7 4 8 23 9 5 10 2 11 22 12 1 13
REMARK SMILES IDX 3 14 10 15 11 16 12 18 13 19 16 20 14 21 15 22 17 23 18 24
REMARK SMILES IDX 21 25 19 26 20 27
REMARK H PARENT 11 17
REMARK Flexibility Score: inf
ROOT
ATOM      1  C   UNL     1      19.026  34.379  16.455  1.00  0.00     0.349 C 
ATOM      2  O   UNL     1      19.043  33.509  17.369  1.00  0.00    -0.248 OA
ENDROOT
BRANCH   1   3
ATOM      3  O   UNL     1      19.928  34.297  15.386  1.00  0.00    -0.459 OA
BRANCH   3   4
ATOM      4  C   UNL     1      21.320  34.598  15.488  1.00  0.00     0.188 C 
ATOM      5  C   UNL     1      21.125  33.846  12.596  1.00  0.00     0.212 C 
ATOM      6  O   UNL     1      21.512  32.681  11.899  1.00  0.00    -0.357 OA
ATOM      7  C   UNL     1      21.375  32.565  13.294  1.00  0.00     0.212 C 
ATOM      8  C   UNL     1      22.261  34.784  13.072  1.00  0.00     0.221 C 
ATOM      9  C   UNL     1      22.646  32.815  14.133  1.00  0.00     0.221 C 
ATOM     10  C   UNL     1      21.703  35.548  14.308  1.00  0.00     0.113 C 
ATOM     11  N   UNL     1      23.399  33.907  13.453  1.00  0.00    -0.319 N 
ATOM     12  C   UNL     1      22.144  33.265  15.537  1.00  0.00     0.113 C 
ATOM     13  C   UNL     1      24.431  34.564  14.312  1.00  0.00     0.334 C 
ATOM     14  C   UNL     1      24.129  33.404  12.239  1.00  0.00     0.334 C 
ENDBRANCH   3   4
ENDBRANCH   1   3
BRANCH   1  15
ATOM     15  C   UNL     1      18.023  35.507  16.522  1.00  0.00     0.231 C 
BRANCH  15  16
ATOM     16  O   UNL     1      18.276  36.354  15.424  1.00  0.00    -0.369 OA
ATOM     17  H   UNL     1      17.939  37.263  15.645  1.00  0.00     0.213 HD
ENDBRANCH  15  16
BRANCH  15  18
ATOM     18  C   UNL     1      16.614  34.947  16.430  1.00  0.00     0.053 A 
ATOM     19  C   UNL     1      15.968  34.149  17.374  1.00  0.00     0.019 A 
ATOM     20  S   UNL     1      15.644  35.002  15.054  1.00  0.00    -0.145 S 
ATOM     21  C   UNL     1      14.722  33.672  16.945  1.00  0.00     0.012 A 
ATOM     22  C   UNL     1      14.388  34.065  15.658  1.00  0.00     0.065 A 
ENDBRANCH  15  18
BRANCH  15  23
ATOM     23  C   UNL     1      18.202  36.286  17.814  1.00  0.00     0.053 A 
ATOM     24  C   UNL     1      17.188  36.772  18.641  1.00  0.00     0.019 A 
ATOM     25  S   UNL     1      19.668  36.870  18.406  1.00  0.00    -0.145 S 
ATOM     26  C   UNL     1      17.658  37.548  19.708  1.00  0.00     0.012 A 
ATOM     27  C   UNL     1      19.038  37.699  19.724  1.00  0.00     0.065 A 
ENDBRANCH  15  23
ENDBRANCH   1  15
TORSDOF 6
ENDMDL
MODEL 5
REMARK VINA RESULT:    -7.053      3.769      7.557
REMARK INTER + INTRA:          -9.915
REMARK INTER:                  -8.857
REMARK INTRA:                  -1.058
REMARK UNBOUND:                -0.595
REMARK SMILES C[N+]1(C)[C@@H]2C[C@@H](OC(=O)C(O)(c3cccs3)c3cccs3)C[C@H]1[C@@H]1O[C@@H]12
REMARK SMILES IDX 8 1 9 2 7 3 6 4 26 5 25 6 24 7 4 8 23 9 5 10 2 11 22 12 1 13
REMARK SMILES IDX 3 14 10 15 11 16 12 18 13 19 16 20 14 21 15 22 17 23 18 24
REMARK SMILES IDX 21 25 19 26 20 27
REMARK H PARENT 11 17
REMARK Flexibility Score: inf
ROOT
ATOM      1  C   UNL     1      23.528  33.202  14.296  1.00  0.00     0.349 C 
ATOM      2  O   UNL     1      23.781  32.417  15.252  1.00  0.00    -0.248 OA
ENDROOT
BRANCH   1   3
ATOM      3  O   UNL     1      22.227  33.297  13.786  1.00  0.00    -0.459 OA
BRANCH   3   4
ATOM      4  C   UNL     1      21.085  33.648  14.568  1.00  0.00     0.188 C 
ATOM      5  C   UNL     1      19.800  32.018  12.409  1.00  0.00     0.212 C 
ATOM      6  O   UNL     1      19.037  32.387  11.280  1.00  0.00    -0.357 OA
ATOM      7  C   UNL     1      19.823  33.395  11.868  1.00  0.00     0.212 C 
ATOM      8  C   UNL     1      19.110  32.147  13.789  1.00  0.00     0.221 C 
ATOM      9  C   UNL     1      19.139  34.256  12.951  1.00  0.00     0.221 C 
ATOM     10  C   UNL     1      20.252  32.352  14.827  1.00  0.00     0.113 C 
ATOM     11  N   UNL     1      18.236  33.347  13.712  1.00  0.00    -0.319 N 
ATOM     12  C   UNL     1      20.290  34.794  13.852  1.00  0.00     0.113 C 
ATOM     13  C   UNL     1      17.800  33.887  15.036  1.00  0.00     0.334 C 
ATOM     14  C   UNL     1      16.974  33.053  12.949  1.00  0.00     0.334 C 
ENDBRANCH   3   4
ENDBRANCH   1   3
BRANCH   1  15
ATOM     15  C   UNL     1      24.640  34.041  13.710  1.00  0.00     0.231 C 
BRANCH  15  16
ATOM     16  O   UNL     1      25.492  34.402  14.772  1.00  0.00    -0.369 OA
ATOM     17  H   UNL     1      25.118  35.210  15.214  1.00  0.00     0.213 HD
ENDBRANCH  15  16
BRANCH  15  18
ATOM     18  C   UNL     1      25.409  33.228  12.683  1.00  0.00     0.053 A 
ATOM     19  C   UNL     1      24.879  32.319  11.768  1.00  0.00     0.019 A 
ATOM     20  S   UNL     1      27.089  33.110  12.610  1.00  0.00    -0.145 S 
ATOM     21  C   UNL     1      25.854  31.621  11.043  1.00  0.00     0.012 A 
ATOM     22  C   UNL     1      27.154  31.952  11.395  1.00  0.00     0.065 A 
ENDBRANCH  15  18
BRANCH  15  23
ATOM     23  C   UNL     1      24.065  35.295  13.073  1.00  0.00     0.053 A 
ATOM     24  C   UNL     1      23.929  35.549  11.708  1.00  0.00     0.019 A 
ATOM     25  S   UNL     1      23.641  36.702  13.899  1.00  0.00    -0.145 S 
ATOM     26  C   UNL     1      23.464  36.839  11.421  1.00  0.00     0.012 A 
ATOM     27  C   UNL     1      23.248  37.618  12.548  1.00  0.00     0.065 A 
ENDBRANCH  15  23
ENDBRANCH   1  15
TORSDOF 6
ENDMDL
MODEL 6
REMARK VINA RESULT:    -7.051      2.287      3.451
REMARK INTER + INTRA:          -9.913
REMARK INTER:                  -9.131
REMARK INTRA:                  -0.782
REMARK UNBOUND:                -0.595
REMARK SMILES C[N+]1(C)[C@@H]2C[C@@H](OC(=O)C(O)(c3cccs3)c3cccs3)C[C@H]1[C@@H]1O[C@@H]12
REMARK SMILES IDX 8 1 9 2 7 3 6 4 26 5 25 6 24 7 4 8 23 9 5 10 2 11 22 12 1 13
REMARK SMILES IDX 3 14 10 15 11 16 12 18 13 19 16 20 14 21 15 22 17 23 18 24
REMARK SMILES IDX 21 25 19 26 20 27
REMARK H PARENT 11 17
REMARK Flexibility Score: inf
ROOT
ATOM      1  C   UNL     1      19.308  35.517  15.199  1.00  0.00     0.349 C 
ATOM      2  O   UNL     1      18.696  36.526  15.648  1.00  0.00    -0.248 OA
ENDROOT
BRANCH   1   3
ATOM      3  O   UNL     1      20.541  35.670  14.551  1.00  0.00    -0.459 OA
BRANCH   3   4
ATOM      4  C   UNL     1      21.784  35.853  15.229  1.00  0.00     0.188 C 
ATOM      5  C   UNL     1      22.743  35.338  12.439  1.00  0.00     0.212 C 
ATOM      6  O   UNL     1      23.331  34.203  11.841  1.00  0.00    -0.357 OA
ATOM      7  C   UNL     1      22.638  33.993  13.047  1.00  0.00     0.212 C 
ATOM      8  C   UNL     1      23.627  36.147  13.419  1.00  0.00     0.221 C 
ATOM      9  C   UNL     1      23.470  34.080  14.344  1.00  0.00     0.221 C 
ATOM     10  C   UNL     1      22.649  36.856  14.401  1.00  0.00     0.113 C 
ATOM     11  N   UNL     1      24.477  35.158  14.133  1.00  0.00    -0.319 N 
ATOM     12  C   UNL     1      22.462  34.461  15.468  1.00  0.00     0.113 C 
ATOM     13  C   UNL     1      25.101  35.667  15.393  1.00  0.00     0.334 C 
ATOM     14  C   UNL     1      25.615  34.693  13.266  1.00  0.00     0.334 C 
ENDBRANCH   3   4
ENDBRANCH   1   3
BRANCH   1  15
ATOM     15  C   UNL     1      18.701  34.144  15.369  1.00  0.00     0.231 C 
BRANCH  15  16
ATOM     16  O   UNL     1      19.290  33.567  16.512  1.00  0.00    -0.369 OA
ATOM     17  H   UNL     1      18.663  33.674  17.276  1.00  0.00     0.213 HD
ENDBRANCH  15  16
BRANCH  15  18
ATOM     18  C   UNL     1      17.200  34.268  15.568  1.00  0.00     0.053 A 
ATOM     19  C   UNL     1      16.247  34.552  14.589  1.00  0.00     0.019 A 
ATOM     20  S   UNL     1      16.426  34.304  17.064  1.00  0.00    -0.145 S 
ATOM     21  C   UNL     1      14.957  34.739  15.102  1.00  0.00     0.012 A 
ATOM     22  C   UNL     1      14.884  34.629  16.483  1.00  0.00     0.065 A 
ENDBRANCH  15  18
BRANCH  15  23
ATOM     23  C   UNL     1      19.007  33.285  14.153  1.00  0.00     0.053 A 
ATOM     24  C   UNL     1      19.656  32.049  14.148  1.00  0.00     0.019 A 
ATOM     25  S   UNL     1      18.779  33.749  12.549  1.00  0.00    -0.145 S 
ATOM     26  C   UNL     1      19.893  31.546  12.864  1.00  0.00     0.012 A 
ATOM     27  C   UNL     1      19.456  32.382  11.846  1.00  0.00     0.065 A 
ENDBRANCH  15  23
ENDBRANCH   1  15
TORSDOF 6
ENDMDL
MODEL 7
REMARK VINA RESULT:    -7.046      3.638      7.572
REMARK INTER + INTRA:          -9.907
REMARK INTER:                  -8.881
REMARK INTRA:                  -1.026
REMARK UNBOUND:                -0.595
REMARK SMILES C[N+]1(C)[C@@H]2C[C@@H](OC(=O)C(O)(c3cccs3)c3cccs3)C[C@H]1[C@@H]1O[C@@H]12
REMARK SMILES IDX 8 1 9 2 7 3 6 4 26 5 25 6 24 7 4 8 23 9 5 10 2 11 22 12 1 13
REMARK SMILES IDX 3 14 10 15 11 16 12 18 13 19 16 20 14 21 15 22 17 23 18 24
REMARK SMILES IDX 21 25 19 26 20 27
REMARK H PARENT 11 17
REMARK Flexibility Score: inf
ROOT
ATOM      1  C   UNL     1      23.373  33.132  14.267  1.00  0.00     0.349 C 
ATOM      2  O   UNL     1      23.626  32.071  14.903  1.00  0.00    -0.248 OA
ENDROOT
BRANCH   1   3
ATOM      3  O   UNL     1      22.045  33.523  14.047  1.00  0.00    -0.459 OA
BRANCH   3   4
ATOM      4  C   UNL     1      21.197  32.949  13.051  1.00  0.00     0.188 C 
ATOM      5  C   UNL     1      19.262  34.749  14.461  1.00  0.00     0.212 C 
ATOM      6  O   UNL     1      18.226  34.480  15.380  1.00  0.00    -0.357 OA
ATOM      7  C   UNL     1      19.198  33.476  15.214  1.00  0.00     0.212 C 
ATOM      8  C   UNL     1      19.008  34.350  12.987  1.00  0.00     0.221 C 
ATOM      9  C   UNL     1      18.901  32.402  14.146  1.00  0.00     0.221 C 
ATOM     10  C   UNL     1      20.409  34.105  12.355  1.00  0.00     0.113 C 
ATOM     11  N   UNL     1      18.211  33.095  13.022  1.00  0.00    -0.319 N 
ATOM     12  C   UNL     1      20.289  31.851  13.704  1.00  0.00     0.113 C 
ATOM     13  C   UNL     1      18.204  32.325  11.742  1.00  0.00     0.334 C 
ATOM     14  C   UNL     1      16.769  33.375  13.345  1.00  0.00     0.334 C 
ENDBRANCH   3   4
ENDBRANCH   1   3
BRANCH   1  15
ATOM     15  C   UNL     1      24.513  33.979  13.751  1.00  0.00     0.231 C 
BRANCH  15  16
ATOM     16  O   UNL     1      25.329  34.295  14.855  1.00  0.00    -0.369 OA
ATOM     17  H   UNL     1      25.762  35.174  14.685  1.00  0.00     0.213 HD
ENDBRANCH  15  16
BRANCH  15  18
ATOM     18  C   UNL     1      25.312  33.193  12.725  1.00  0.00     0.053 A 
ATOM     19  C   UNL     1      24.803  32.364  11.725  1.00  0.00     0.019 A 
ATOM     20  S   UNL     1      26.986  33.002  12.749  1.00  0.00    -0.145 S 
ATOM     21  C   UNL     1      25.792  31.665  11.021  1.00  0.00     0.012 A 
ATOM     22  C   UNL     1      27.080  31.915  11.472  1.00  0.00     0.065 A 
ENDBRANCH  15  18
BRANCH  15  23
ATOM     23  C   UNL     1      23.973  35.260  13.137  1.00  0.00     0.053 A 
ATOM     24  C   UNL     1      23.825  35.534  11.777  1.00  0.00     0.019 A 
ATOM     25  S   UNL     1      23.614  36.672  13.984  1.00  0.00    -0.145 S 
ATOM     26  C   UNL     1      23.402  36.842  11.510  1.00  0.00     0.012 A 
ATOM     27  C   UNL     1      23.232  37.617  12.649  1.00  0.00     0.065 A 
ENDBRANCH  15  23
ENDBRANCH   1  15
TORSDOF 6
ENDMDL
MODEL 8
REMARK VINA RESULT:    -7.027      1.476      3.949
REMARK INTER + INTRA:          -9.881
REMARK INTER:                  -9.018
REMARK INTRA:                  -0.864
REMARK UNBOUND:                -0.595
REMARK SMILES C[N+]1(C)[C@@H]2C[C@@H](OC(=O)C(O)(c3cccs3)c3cccs3)C[C@H]1[C@@H]1O[C@@H]12
REMARK SMILES IDX 8 1 9 2 7 3 6 4 26 5 25 6 24 7 4 8 23 9 5 10 2 11 22 12 1 13
REMARK SMILES IDX 3 14 10 15 11 16 12 18 13 19 16 20 14 21 15 22 17 23 18 24
REMARK SMILES IDX 21 25 19 26 20 27
REMARK H PARENT 11 17
REMARK Flexibility Score: inf
ROOT
ATOM      1  C   UNL     1      19.541  34.311  16.382  1.00  0.00     0.349 C 
ATOM      2  O   UNL     1      19.156  33.130  16.608  1.00  0.00    -0.248 OA
ENDROOT
BRANCH   1   3
ATOM      3  O   UNL     1      20.864  34.559  15.993  1.00  0.00    -0.459 OA
BRANCH   3   4
ATOM      4  C   UNL     1      21.566  33.798  15.009  1.00  0.00     0.188 C 
ATOM      5  C   UNL     1      23.399  36.147  15.306  1.00  0.00     0.212 C 
ATOM      6  O   UNL     1      23.630  37.270  14.482  1.00  0.00    -0.357 OA
ATOM      7  C   UNL     1      22.435  36.561  14.262  1.00  0.00     0.212 C 
ATOM      8  C   UNL     1      23.960  34.791  14.811  1.00  0.00     0.221 C 
ATOM      9  C   UNL     1      22.487  35.434  13.208  1.00  0.00     0.221 C 
ATOM     10  C   UNL     1      23.062  33.692  15.449  1.00  0.00     0.113 C 
ATOM     11  N   UNL     1      23.829  34.797  13.330  1.00  0.00    -0.319 N 
ATOM     12  C   UNL     1      21.352  34.440  13.596  1.00  0.00     0.113 C 
ATOM     13  C   UNL     1      23.925  33.449  12.691  1.00  0.00     0.334 C 
ATOM     14  C   UNL     1      24.901  35.636  12.692  1.00  0.00     0.334 C 
ENDBRANCH   3   4
ENDBRANCH   1   3
BRANCH   1  15
ATOM     15  C   UNL     1      18.563  35.452  16.529  1.00  0.00     0.231 C 
BRANCH  15  16
ATOM     16  O   UNL     1      18.967  36.465  15.637  1.00  0.00    -0.369 OA
ATOM     17  H   UNL     1      18.239  37.139  15.576  1.00  0.00     0.213 HD
ENDBRANCH  15  16
BRANCH  15  18
ATOM     18  C   UNL     1      17.164  34.978  16.173  1.00  0.00     0.053 A 
ATOM     19  C   UNL     1      16.566  35.007  14.913  1.00  0.00     0.019 A 
ATOM     20  S   UNL     1      15.985  34.529  17.290  1.00  0.00    -0.145 S 
ATOM     21  C   UNL     1      15.217  34.629  14.925  1.00  0.00     0.012 A 
ATOM     22  C   UNL     1      14.734  34.324  16.189  1.00  0.00     0.065 A 
ENDBRANCH  15  18
BRANCH  15  23
ATOM     23  C   UNL     1      18.597  35.986  17.951  1.00  0.00     0.053 A 
ATOM     24  C   UNL     1      18.127  37.226  18.387  1.00  0.00     0.019 A 
ATOM     25  S   UNL     1      19.377  35.250  19.251  1.00  0.00    -0.145 S 
ATOM     26  C   UNL     1      18.394  37.484  19.737  1.00  0.00     0.012 A 
ATOM     27  C   UNL     1      19.091  36.466  20.373  1.00  0.00     0.065 A 
ENDBRANCH  15  23
ENDBRANCH   1  15
TORSDOF 6
ENDMDL
MODEL 9
REMARK VINA RESULT:    -6.988      3.557      6.695
REMARK INTER + INTRA:          -9.831
REMARK INTER:                  -9.057
REMARK INTRA:                  -0.773
REMARK UNBOUND:                -0.595
REMARK SMILES C[N+]1(C)[C@@H]2C[C@@H](OC(=O)C(O)(c3cccs3)c3cccs3)C[C@H]1[C@@H]1O[C@@H]12
REMARK SMILES IDX 8 1 9 2 7 3 6 4 26 5 25 6 24 7 4 8 23 9 5 10 2 11 22 12 1 13
REMARK SMILES IDX 3 14 10 15 11 16 12 18 13 19 16 20 14 21 15 22 17 23 18 24
REMARK SMILES IDX 21 25 19 26 20 27
REMARK H PARENT 11 17
REMARK Flexibility Score: inf
ROOT
ATOM      1  C   UNL     1      16.521  33.893  13.433  1.00  0.00     0.349 C 
ATOM      2  O   UNL     1      15.271  33.998  13.570  1.00  0.00    -0.248 OA
ENDROOT
BRANCH   1   3
ATOM      3  O   UNL     1      17.386  34.610  14.270  1.00  0.00    -0.459 OA
BRANCH   3   4
ATOM      4  C   UNL     1      16.958  35.367  15.403  1.00  0.00     0.188 C 
ATOM      5  C   UNL     1      19.753  34.670  16.223  1.00  0.00     0.212 C 
ATOM      6  O   UNL     1      20.254  33.728  17.147  1.00  0.00    -0.357 OA
ATOM      7  C   UNL     1      18.933  33.535  16.704  1.00  0.00     0.212 C 
ATOM      8  C   UNL     1      19.069  35.928  16.813  1.00  0.00     0.221 C 
ATOM      9  C   UNL     1      17.820  34.184  17.554  1.00  0.00     0.221 C 
ATOM     10  C   UNL     1      18.063  36.421  15.732  1.00  0.00     0.113 C 
ATOM     11  N   UNL     1      18.359  35.484  18.042  1.00  0.00    -0.319 N 
ATOM     12  C   UNL     1      16.619  34.397  16.586  1.00  0.00     0.113 C 
ATOM     13  C   UNL     1      17.314  36.433  18.533  1.00  0.00     0.334 C 
ATOM     14  C   UNL     1      19.317  35.294  19.185  1.00  0.00     0.334 C 
ENDBRANCH   3   4
ENDBRANCH   1   3
BRANCH   1  15
ATOM     15  C   UNL     1      17.077  32.983  12.362  1.00  0.00     0.231 C 
BRANCH  15  16
ATOM     16  O   UNL     1      16.412  31.746  12.480  1.00  0.00    -0.369 OA
ATOM     17  H   UNL     1      15.694  31.709  11.794  1.00  0.00     0.213 HD
ENDBRANCH  15  16
BRANCH  15  18
ATOM     18  C   UNL     1      16.812  33.584  10.991  1.00  0.00     0.053 A 
ATOM     19  C   UNL     1      16.345  34.869  10.717  1.00  0.00     0.019 A 
ATOM     20  S   UNL     1      16.822  32.721   9.544  1.00  0.00    -0.145 S 
ATOM     21  C   UNL     1      16.068  35.087   9.361  1.00  0.00     0.012 A 
ATOM     22  C   UNL     1      16.286  33.974   8.562  1.00  0.00     0.065 A 
ENDBRANCH  15  18
BRANCH  15  23
ATOM     23  C   UNL     1      18.568  32.780  12.574  1.00  0.00     0.053 A 
ATOM     24  C   UNL     1      19.168  31.943  13.515  1.00  0.00     0.019 A 
ATOM     25  S   UNL     1      19.790  33.668  11.826  1.00  0.00    -0.145 S 
ATOM     26  C   UNL     1      20.564  32.046  13.548  1.00  0.00     0.012 A 
ATOM     27  C   UNL     1      21.077  32.975  12.653  1.00  0.00     0.065 A 
ENDBRANCH  15  23
ENDBRANCH   1  15
TORSDOF 6
ENDMDL
MODEL 10
REMARK VINA RESULT:    -6.978      1.918      3.652
REMARK INTER + INTRA:          -9.817
REMARK INTER:                  -9.288
REMARK INTRA:                  -0.528
REMARK UNBOUND:                -0.595
REMARK SMILES C[N+]1(C)[C@@H]2C[C@@H](OC(=O)C(O)(c3cccs3)c3cccs3)C[C@H]1[C@@H]1O[C@@H]12
REMARK SMILES IDX 8 1 9 2 7 3 6 4 26 5 25 6 24 7 4 8 23 9 5 10 2 11 22 12 1 13
REMARK SMILES IDX 3 14 10 15 11 16 12 18 13 19 16 20 14 21 15 22 17 23 18 24
REMARK SMILES IDX 21 25 19 26 20 27
REMARK H PARENT 11 17
REMARK Flexibility Score: inf
ROOT
ATOM      1  C   UNL     1      19.391  33.822  15.737  1.00  0.00     0.349 C 
ATOM      2  O   UNL     1      19.174  33.127  16.769  1.00  0.00    -0.248 OA
ENDROOT
BRANCH   1   3
ATOM      3  O   UNL     1      20.623  33.737  15.075  1.00  0.00    -0.459 OA
BRANCH   3   4
ATOM      4  C   UNL     1      21.885  33.971  15.700  1.00  0.00     0.188 C 
ATOM      5  C   UNL     1      22.577  34.496  12.833  1.00  0.00     0.212 C 
ATOM      6  O   UNL     1      23.284  33.731  11.881  1.00  0.00    -0.357 OA
ATOM      7  C   UNL     1      22.790  33.041  13.004  1.00  0.00     0.212 C 
ATOM      8  C   UNL     1      23.413  35.153  13.959  1.00  0.00     0.221 C 
ATOM      9  C   UNL     1      23.744  32.922  14.212  1.00  0.00     0.221 C 
ATOM     10  C   UNL     1      22.449  35.328  15.169  1.00  0.00     0.113 C 
ATOM     11  N   UNL     1      24.507  34.199  14.281  1.00  0.00    -0.319 N 
ATOM     12  C   UNL     1      22.827  32.742  15.458  1.00  0.00     0.113 C 
ATOM     13  C   UNL     1      25.176  34.441  15.596  1.00  0.00     0.334 C 
ATOM     14  C   UNL     1      25.597  34.252  13.246  1.00  0.00     0.334 C 
ENDBRANCH   3   4
ENDBRANCH   1   3
BRANCH   1  15
ATOM     15  C   UNL     1      18.310  34.742  15.221  1.00  0.00     0.231 C 
BRANCH  15  16
ATOM     16  O   UNL     1      18.920  35.978  14.927  1.00  0.00    -0.369 OA
ATOM     17  H   UNL     1      19.864  35.944  15.238  1.00  0.00     0.213 HD
ENDBRANCH  15  16
BRANCH  15  18
ATOM     18  C   UNL     1      17.695  34.156  13.961  1.00  0.00     0.053 A 
ATOM     19  C   UNL     1      16.610  34.662  13.246  1.00  0.00     0.019 A 
ATOM     20  S   UNL     1      18.078  32.648  13.315  1.00  0.00    -0.145 S 
ATOM     21  C   UNL     1      16.187  33.826  12.205  1.00  0.00     0.012 A 
ATOM     22  C   UNL     1      16.913  32.648  12.105  1.00  0.00     0.065 A 
ENDBRANCH  15  18
BRANCH  15  23
ATOM     23  C   UNL     1      17.246  34.944  16.287  1.00  0.00     0.053 A 
ATOM     24  C   UNL     1      15.997  34.324  16.345  1.00  0.00     0.019 A 
ATOM     25  S   UNL     1      17.301  36.097  17.515  1.00  0.00    -0.145 S 
ATOM     26  C   UNL     1      15.187  34.791  17.388  1.00  0.00     0.012 A 
ATOM     27  C   UNL     1      15.775  35.792  18.147  1.00  0.00     0.065 A 
ENDBRANCH  15  23
ENDBRANCH   1  15
TORSDOF 6
ENDMDL
MODEL 11
REMARK VINA RESULT:    -6.898      2.767      7.028
REMARK INTER + INTRA:          -9.712
REMARK INTER:                  -8.566
REMARK INTRA:                  -1.146
REMARK UNBOUND:                -0.595
REMARK SMILES C[N+]1(C)[C@@H]2C[C@@H](OC(=O)C(O)(c3cccs3)c3cccs3)C[C@H]1[C@@H]1O[C@@H]12
REMARK SMILES IDX 8 1 9 2 7 3 6 4 26 5 25 6 24 7 4 8 23 9 5 10 2 11 22 12 1 13
REMARK SMILES IDX 3 14 10 15 11 16 12 18 13 19 16 20 14 21 15 22 17 23 18 24
REMARK SMILES IDX 21 25 19 26 20 27
REMARK H PARENT 11 17
REMARK Flexibility Score: inf
ROOT
ATOM      1  C   UNL     1      21.009  32.985  14.350  1.00  0.00     0.349 C 
ATOM      2  O   UNL     1      20.535  32.093  13.593  1.00  0.00    -0.248 OA
ENDROOT
BRANCH   1   3
ATOM      3  O   UNL     1      20.172  33.972  14.887  1.00  0.00    -0.459 OA
BRANCH   3   4
ATOM      4  C   UNL     1      18.852  33.725  15.372  1.00  0.00     0.188 C 
ATOM      5  C   UNL     1      19.270  36.539  16.307  1.00  0.00     0.212 C 
ATOM      6  O   UNL     1      19.549  37.074  17.583  1.00  0.00    -0.357 OA
ATOM      7  C   UNL     1      19.803  35.702  17.405  1.00  0.00     0.212 C 
ATOM      8  C   UNL     1      17.833  36.012  16.071  1.00  0.00     0.221 C 
ATOM      9  C   UNL     1      18.652  34.737  17.761  1.00  0.00     0.221 C 
ATOM     10  C   UNL     1      17.946  34.929  14.959  1.00  0.00     0.113 C 
ATOM     11  N   UNL     1      17.387  35.414  17.357  1.00  0.00    -0.319 N 
ATOM     12  C   UNL     1      18.900  33.453  16.914  1.00  0.00     0.113 C 
ATOM     13  C   UNL     1      16.213  34.497  17.243  1.00  0.00     0.334 C 
ATOM     14  C   UNL     1      16.988  36.478  18.343  1.00  0.00     0.334 C 
ENDBRANCH   3   4
ENDBRANCH   1   3
BRANCH   1  15
ATOM     15  C   UNL     1      22.485  32.977  14.674  1.00  0.00     0.231 C 
BRANCH  15  16
ATOM     16  O   UNL     1      22.865  31.631  14.847  1.00  0.00    -0.369 OA
ATOM     17  H   UNL     1      22.524  31.319  15.726  1.00  0.00     0.213 HD
ENDBRANCH  15  16
BRANCH  15  18
ATOM     18  C   UNL     1      23.266  33.592  13.525  1.00  0.00     0.053 A 
ATOM     19  C   UNL     1      24.596  33.340  13.188  1.00  0.00     0.019 A 
ATOM     20  S   UNL     1      22.728  34.873  12.572  1.00  0.00    -0.145 S 
ATOM     21  C   UNL     1      25.078  34.162  12.162  1.00  0.00     0.012 A 
ATOM     22  C   UNL     1      24.148  35.082  11.700  1.00  0.00     0.065 A 
ENDBRANCH  15  18
BRANCH  15  23
ATOM     23  C   UNL     1      22.739  33.744  15.961  1.00  0.00     0.053 A 
ATOM     24  C   UNL     1      23.262  35.033  16.073  1.00  0.00     0.019 A 
ATOM     25  S   UNL     1      22.602  33.112  17.517  1.00  0.00    -0.145 S 
ATOM     26  C   UNL     1      23.484  35.436  17.395  1.00  0.00     0.012 A 
ATOM     27  C   UNL     1      23.160  34.468  18.336  1.00  0.00     0.065 A 
ENDBRANCH  15  23
ENDBRANCH   1  15
TORSDOF 6
ENDMDL
MODEL 12
REMARK VINA RESULT:    -6.824      1.977      2.937
REMARK INTER + INTRA:          -9.613
REMARK INTER:                  -9.379
REMARK INTRA:                  -0.234
REMARK UNBOUND:                -0.595
REMARK SMILES C[N+]1(C)[C@@H]2C[C@@H](OC(=O)C(O)(c3cccs3)c3cccs3)C[C@H]1[C@@H]1O[C@@H]12
REMARK SMILES IDX 8 1 9 2 7 3 6 4 26 5 25 6 24 7 4 8 23 9 5 10 2 11 22 12 1 13
REMARK SMILES IDX 3 14 10 15 11 16 12 18 13 19 16 20 14 21 15 22 17 23 18 24
REMARK SMILES IDX 21 25 19 26 20 27
REMARK H PARENT 11 17
REMARK Flexibility Score: inf
ROOT
ATOM      1  C   UNL     1      19.374  35.451  15.863  1.00  0.00     0.349 C 
ATOM      2  O   UNL     1      19.074  36.621  15.495  1.00  0.00    -0.248 OA
ENDROOT
BRANCH   1   3
ATOM      3  O   UNL     1      20.717  35.083  16.018  1.00  0.00    -0.459 OA
BRANCH   3   4
ATOM      4  C   UNL     1      21.398  34.162  15.165  1.00  0.00     0.188 C 
ATOM      5  C   UNL     1      23.417  36.368  15.327  1.00  0.00     0.212 C 
ATOM      6  O   UNL     1      23.791  37.370  14.407  1.00  0.00    -0.357 OA
ATOM      7  C   UNL     1      22.550  36.744  14.188  1.00  0.00     0.212 C 
ATOM      8  C   UNL     1      23.878  34.924  15.012  1.00  0.00     0.221 C 
ATOM      9  C   UNL     1      22.556  35.509  13.263  1.00  0.00     0.221 C 
ATOM     10  C   UNL     1      22.853  33.980  15.705  1.00  0.00     0.113 C 
ATOM     11  N   UNL     1      23.827  34.779  13.534  1.00  0.00    -0.319 N 
ATOM     12  C   UNL     1      21.318  34.662  13.682  1.00  0.00     0.113 C 
ATOM     13  C   UNL     1      23.835  33.366  13.046  1.00  0.00     0.334 C 
ATOM     14  C   UNL     1      25.002  35.450  12.879  1.00  0.00     0.334 C 
ENDBRANCH   3   4
ENDBRANCH   1   3
BRANCH   1  15
ATOM     15  C   UNL     1      18.273  34.454  16.139  1.00  0.00     0.231 C 
BRANCH  15  16
ATOM     16  O   UNL     1      18.850  33.384  16.851  1.00  0.00    -0.369 OA
ATOM     17  H   UNL     1      19.532  32.952  16.271  1.00  0.00     0.213 HD
ENDBRANCH  15  16
BRANCH  15  18
ATOM     18  C   UNL     1      17.187  35.107  16.977  1.00  0.00     0.053 A 
ATOM     19  C   UNL     1      17.358  36.104  17.938  1.00  0.00     0.019 A 
ATOM     20  S   UNL     1      15.587  34.585  17.057  1.00  0.00    -0.145 S 
ATOM     21  C   UNL     1      16.186  36.408  18.643  1.00  0.00     0.012 A 
ATOM     22  C   UNL     1      15.093  35.642  18.266  1.00  0.00     0.065 A 
ENDBRANCH  15  18
BRANCH  15  23
ATOM     23  C   UNL     1      17.697  33.940  14.830  1.00  0.00     0.053 A 
ATOM     24  C   UNL     1      18.165  32.858  14.082  1.00  0.00     0.019 A 
ATOM     25  S   UNL     1      16.484  34.693  13.934  1.00  0.00    -0.145 S 
ATOM     26  C   UNL     1      17.498  32.689  12.863  1.00  0.00     0.012 A 
ATOM     27  C   UNL     1      16.515  33.640  12.626  1.00  0.00     0.065 A 
ENDBRANCH  15  23
ENDBRANCH   1  15
TORSDOF 6
ENDMDL
MODEL 13
REMARK VINA RESULT:    -6.820      2.780      7.075
REMARK INTER + INTRA:          -9.608
REMARK INTER:                  -8.851
REMARK INTRA:                  -0.757
REMARK UNBOUND:                -0.595
REMARK SMILES C[N+]1(C)[C@@H]2C[C@@H](OC(=O)C(O)(c3cccs3)c3cccs3)C[C@H]1[C@@H]1O[C@@H]12
REMARK SMILES IDX 8 1 9 2 7 3 6 4 26 5 25 6 24 7 4 8 23 9 5 10 2 11 22 12 1 13
REMARK SMILES IDX 3 14 10 15 11 16 12 18 13 19 16 20 14 21 15 22 17 23 18 24
REMARK SMILES IDX 21 25 19 26 20 27
REMARK H PARENT 11 17
REMARK Flexibility Score: inf
ROOT
ATOM      1  C   UNL     1      21.754  33.810  14.890  1.00  0.00     0.349 C 
ATOM      2  O   UNL     1      22.411  33.109  15.710  1.00  0.00    -0.248 OA
ENDROOT
BRANCH   1   3
ATOM      3  O   UNL     1      20.675  34.587  15.333  1.00  0.00    -0.459 OA
BRANCH   3   4
ATOM      4  C   UNL     1      19.361  34.077  15.559  1.00  0.00     0.188 C 
ATOM      5  C   UNL     1      19.132  36.783  16.822  1.00  0.00     0.212 C 
ATOM      6  O   UNL     1      19.116  37.192  18.173  1.00  0.00    -0.357 OA
ATOM      7  C   UNL     1      19.631  35.909  17.908  1.00  0.00     0.212 C 
ATOM      8  C   UNL     1      17.863  36.071  16.293  1.00  0.00     0.221 C 
ATOM      9  C   UNL     1      18.626  34.739  17.965  1.00  0.00     0.221 C 
ATOM     10  C   UNL     1      18.332  35.167  15.116  1.00  0.00     0.113 C 
ATOM     11  N   UNL     1      17.338  35.255  17.420  1.00  0.00    -0.319 N 
ATOM     12  C   UNL     1      19.221  33.626  17.053  1.00  0.00     0.113 C 
ATOM     13  C   UNL     1      16.374  34.186  17.018  1.00  0.00     0.334 C 
ATOM     14  C   UNL     1      16.615  36.111  18.422  1.00  0.00     0.334 C 
ENDBRANCH   3   4
ENDBRANCH   1   3
BRANCH   1  15
ATOM     15  C   UNL     1      22.143  33.806  13.430  1.00  0.00     0.231 C 
BRANCH  15  16
ATOM     16  O   UNL     1      23.191  32.876  13.282  1.00  0.00    -0.369 OA
ATOM     17  H   UNL     1      23.331  32.418  14.153  1.00  0.00     0.213 HD
ENDBRANCH  15  16
BRANCH  15  18
ATOM     18  C   UNL     1      20.954  33.385  12.584  1.00  0.00     0.053 A 
ATOM     19  C   UNL     1      20.066  34.225  11.912  1.00  0.00     0.019 A 
ATOM     20  S   UNL     1      20.352  31.814  12.482  1.00  0.00    -0.145 S 
ATOM     21  C   UNL     1      18.988  33.547  11.328  1.00  0.00     0.012 A 
ATOM     22  C   UNL     1      19.001  32.179  11.553  1.00  0.00     0.065 A 
ENDBRANCH  15  18
BRANCH  15  23
ATOM     23  C   UNL     1      22.628  35.185  13.018  1.00  0.00     0.053 A 
ATOM     24  C   UNL     1      23.331  35.508  11.856  1.00  0.00     0.019 A 
ATOM     25  S   UNL     1      22.564  36.570  13.978  1.00  0.00    -0.145 S 
ATOM     26  C   UNL     1      23.738  36.847  11.801  1.00  0.00     0.012 A 
ATOM     27  C   UNL     1      23.381  37.586  12.920  1.00  0.00     0.065 A 
ENDBRANCH  15  23
ENDBRANCH   1  15
TORSDOF 6
ENDMDL
MODEL 14
REMARK VINA RESULT:    -6.790      2.794      3.715
REMARK INTER + INTRA:          -9.568
REMARK INTER:                  -8.813
REMARK INTRA:                  -0.755
REMARK UNBOUND:                -0.595
REMARK SMILES C[N+]1(C)[C@@H]2C[C@@H](OC(=O)C(O)(c3cccs3)c3cccs3)C[C@H]1[C@@H]1O[C@@H]12
REMARK SMILES IDX 8 1 9 2 7 3 6 4 26 5 25 6 24 7 4 8 23 9 5 10 2 11 22 12 1 13
REMARK SMILES IDX 3 14 10 15 11 16 12 18 13 19 16 20 14 21 15 22 17 23 18 24
REMARK SMILES IDX 21 25 19 26 20 27
REMARK H PARENT 11 17
REMARK Flexibility Score: inf
ROOT
ATOM      1  C   UNL     1      20.870  33.454  12.830  1.00  0.00     0.349 C 
ATOM      2  O   UNL     1      20.587  34.138  11.808  1.00  0.00    -0.248 OA
ENDROOT
BRANCH   1   3
ATOM      3  O   UNL     1      22.154  32.917  12.986  1.00  0.00    -0.459 OA
BRANCH   3   4
ATOM      4  C   UNL     1      23.186  33.522  13.765  1.00  0.00     0.188 C 
ATOM      5  C   UNL     1      24.703  32.827  11.278  1.00  0.00     0.212 C 
ATOM      6  O   UNL     1      25.631  31.801  10.999  1.00  0.00    -0.357 OA
ATOM      7  C   UNL     1      24.808  31.617  12.125  1.00  0.00     0.212 C 
ATOM      8  C   UNL     1      25.195  33.985  12.181  1.00  0.00     0.221 C 
ATOM      9  C   UNL     1      25.362  32.126  13.473  1.00  0.00     0.221 C 
ATOM     10  C   UNL     1      23.926  34.567  12.869  1.00  0.00     0.113 C 
ATOM     11  N   UNL     1      26.115  33.378  13.180  1.00  0.00    -0.319 N 
ATOM     12  C   UNL     1      24.116  32.410  14.362  1.00  0.00     0.113 C 
ATOM     13  C   UNL     1      26.378  34.228  14.381  1.00  0.00     0.334 C 
ATOM     14  C   UNL     1      27.460  33.088  12.574  1.00  0.00     0.334 C 
ENDBRANCH   3   4
ENDBRANCH   1   3
BRANCH   1  15
ATOM     15  C   UNL     1      19.814  33.225  13.886  1.00  0.00     0.231 C 
BRANCH  15  16
ATOM     16  O   UNL     1      20.023  31.933  14.409  1.00  0.00    -0.369 OA
ATOM     17  H   UNL     1      19.525  31.282  13.847  1.00  0.00     0.213 HD
ENDBRANCH  15  16
BRANCH  15  18
ATOM     18  C   UNL     1      19.958  34.259  14.989  1.00  0.00     0.053 A 
ATOM     19  C   UNL     1      20.313  35.600  14.838  1.00  0.00     0.019 A 
ATOM     20  S   UNL     1      19.931  33.918  16.639  1.00  0.00    -0.145 S 
ATOM     21  C   UNL     1      20.499  36.271  16.053  1.00  0.00     0.012 A 
ATOM     22  C   UNL     1      20.318  35.465  17.168  1.00  0.00     0.065 A 
ENDBRANCH  15  18
BRANCH  15  23
ATOM     23  C   UNL     1      18.430  33.301  13.263  1.00  0.00     0.053 A 
ATOM     24  C   UNL     1      17.328  33.996  13.763  1.00  0.00     0.019 A 
ATOM     25  S   UNL     1      17.909  32.408  11.931  1.00  0.00    -0.145 S 
ATOM     26  C   UNL     1      16.155  33.792  13.027  1.00  0.00     0.012 A 
ATOM     27  C   UNL     1      16.311  32.924  11.955  1.00  0.00     0.065 A 
ENDBRANCH  15  23
ENDBRANCH   1  15
TORSDOF 6
ENDMDL
MODEL 15
REMARK VINA RESULT:    -6.774      2.102      2.989
REMARK INTER + INTRA:          -9.548
REMARK INTER:                  -8.809
REMARK INTRA:                  -0.739
REMARK UNBOUND:                -0.595
REMARK SMILES C[N+]1(C)[C@@H]2C[C@@H](OC(=O)C(O)(c3cccs3)c3cccs3)C[C@H]1[C@@H]1O[C@@H]12
REMARK SMILES IDX 8 1 9 2 7 3 6 4 26 5 25 6 24 7 4 8 23 9 5 10 2 11 22 12 1 13
REMARK SMILES IDX 3 14 10 15 11 16 12 18 13 19 16 20 14 21 15 22 17 23 18 24
REMARK SMILES IDX 21 25 19 26 20 27
REMARK H PARENT 11 17
REMARK Flexibility Score: inf
ROOT
ATOM      1  C   UNL     1      20.155  36.222  15.873  1.00  0.00     0.349 C 
ATOM      2  O   UNL     1      19.514  37.264  15.560  1.00  0.00    -0.248 OA
ENDROOT
BRANCH   1   3
ATOM      3  O   UNL     1      21.540  36.160  15.673  1.00  0.00    -0.459 OA
BRANCH   3   4
ATOM      4  C   UNL     1      22.177  36.371  14.413  1.00  0.00     0.188 C 
ATOM      5  C   UNL     1      23.193  33.638  15.098  1.00  0.00     0.212 C 
ATOM      6  O   UNL     1      24.448  33.191  15.564  1.00  0.00    -0.357 OA
ATOM      7  C   UNL     1      24.170  34.561  15.719  1.00  0.00     0.212 C 
ATOM      8  C   UNL     1      23.117  34.082  13.616  1.00  0.00     0.221 C 
ATOM      9  C   UNL     1      24.620  35.489  14.570  1.00  0.00     0.221 C 
ATOM     10  C   UNL     1      21.946  35.104  13.530  1.00  0.00     0.113 C 
ATOM     11  N   UNL     1      24.417  34.731  13.304  1.00  0.00    -0.319 N 
ATOM     12  C   UNL     1      23.685  36.733  14.640  1.00  0.00     0.113 C 
ATOM     13  C   UNL     1      24.409  35.583  12.076  1.00  0.00     0.334 C 
ATOM     14  C   UNL     1      25.498  33.707  13.090  1.00  0.00     0.334 C 
ENDBRANCH   3   4
ENDBRANCH   1   3
BRANCH   1  15
ATOM     15  C   UNL     1      19.416  35.047  16.469  1.00  0.00     0.231 C 
BRANCH  15  16
ATOM     16  O   UNL     1      20.278  34.447  17.409  1.00  0.00    -0.369 OA
ATOM     17  H   UNL     1      20.220  34.959  18.259  1.00  0.00     0.213 HD
ENDBRANCH  15  16
BRANCH  15  18
ATOM     18  C   UNL     1      18.153  35.531  17.160  1.00  0.00     0.053 A 
ATOM     19  C   UNL     1      18.076  36.406  18.244  1.00  0.00     0.019 A 
ATOM     20  S   UNL     1      16.608  34.920  16.882  1.00  0.00    -0.145 S 
ATOM     21  C   UNL     1      16.778  36.557  18.750  1.00  0.00     0.012 A 
ATOM     22  C   UNL     1      15.830  35.789  18.091  1.00  0.00     0.065 A 
ENDBRANCH  15  18
BRANCH  15  23
ATOM     23  C   UNL     1      19.075  34.042  15.381  1.00  0.00     0.053 A 
ATOM     24  C   UNL     1      19.525  32.724  15.294  1.00  0.00     0.019 A 
ATOM     25  S   UNL     1      18.225  34.386  13.967  1.00  0.00    -0.145 S 
ATOM     26  C   UNL     1      19.129  32.072  14.119  1.00  0.00     0.012 A 
ATOM     27  C   UNL     1      18.384  32.870  13.262  1.00  0.00     0.065 A 
ENDBRANCH  15  23
ENDBRANCH   1  15
TORSDOF 6
ENDMDL
