MODEL 1
REMARK VINA RESULT:    -7.677      0.000      0.000
REMARK INTER + INTRA:          -9.577
REMARK INTER:                  -9.248
REMARK INTRA:                  -0.329
REMARK UNBOUND:                -0.329
REMARK SMILES Oc1ccc(/C=C/c2cc(O)cc(O)c2)cc1
REMARK SMILES IDX 6 1 7 2 5 3 2 4 3 5 17 6 4 7 16 8 1 9 8 11 9 12 15 13 10 14
REMARK SMILES IDX 13 15 12 16 11 17 14 19
REMARK H PARENT 1 10 11 18 14 20
REMARK Flexibility Score: inf
ROOT
ATOM      1  C   UNL     1      11.337  11.672  14.034  1.00  0.00     0.009 C 
ATOM      2  C   UNL     1      11.422  12.950  13.631  1.00  0.00     0.009 C 
ENDROOT
BRANCH   1   3
ATOM      3  C   UNL     1      12.289  11.043  14.983  1.00  0.00    -0.025 A 
ATOM      4  C   UNL     1      14.092   9.937  16.843  1.00  0.00     0.115 A 
ATOM      5  C   UNL     1      13.876  11.320  16.809  1.00  0.00     0.047 A 
ATOM      6  C   UNL     1      13.401   9.106  15.958  1.00  0.00     0.047 A 
ATOM      7  C   UNL     1      12.977  11.867  15.890  1.00  0.00     0.012 A 
ATOM      8  C   UNL     1      12.501   9.650  15.035  1.00  0.00     0.012 A 
BRANCH   4   9
ATOM      9  O   UNL     1      14.986   9.380  17.755  1.00  0.00    -0.508 OA
ATOM     10  H   UNL     1      14.663   8.849  18.556  1.00  0.00     0.293 HD
ENDBRANCH   4   9
ENDBRANCH   1   3
BRANCH   2  11
ATOM     11  C   UNL     1      10.470  13.578  12.682  1.00  0.00    -0.018 A 
ATOM     12  C   UNL     1       9.318  14.196  13.196  1.00  0.00     0.054 A 
ATOM     13  C   UNL     1      10.660  13.547  11.285  1.00  0.00     0.054 A 
ATOM     14  C   UNL     1       8.386  14.796  12.342  1.00  0.00     0.119 A 
ATOM     15  C   UNL     1       9.729  14.143  10.428  1.00  0.00     0.119 A 
ATOM     16  C   UNL     1       8.594  14.772  10.958  1.00  0.00     0.092 A 
BRANCH  14  17
ATOM     17  O   UNL     1       7.258  15.411  12.879  1.00  0.00    -0.508 OA
ATOM     18  H   UNL     1       7.135  15.509  13.880  1.00  0.00     0.293 HD
ENDBRANCH  14  17
BRANCH  15  19
ATOM     19  O   UNL     1       9.937  14.102   9.052  1.00  0.00    -0.508 OA
ATOM     20  H   UNL     1      10.478  13.361   8.619  1.00  0.00     0.293 HD
ENDBRANCH  15  19
ENDBRANCH   2  11
TORSDOF 5
ENDMDL
MODEL 2
REMARK VINA RESULT:    -7.675      0.211      2.046
REMARK INTER + INTRA:          -9.575
REMARK INTER:                  -9.252
REMARK INTRA:                  -0.323
REMARK UNBOUND:                -0.329
REMARK SMILES Oc1ccc(/C=C/c2cc(O)cc(O)c2)cc1
REMARK SMILES IDX 6 1 7 2 5 3 2 4 3 5 17 6 4 7 16 8 1 9 8 11 9 12 15 13 10 14
REMARK SMILES IDX 13 15 12 16 11 17 14 19
REMARK H PARENT 1 10 11 18 14 20
REMARK Flexibility Score: inf
ROOT
ATOM      1  C   UNL     1      11.359  11.685  14.092  1.00  0.00     0.009 C 
ATOM      2  C   UNL     1      11.551  12.896  13.549  1.00  0.00     0.009 C 
ENDROOT
BRANCH   1   3
ATOM      3  C   UNL     1      12.314  11.042  15.030  1.00  0.00    -0.025 A 
ATOM      4  C   UNL     1      14.124   9.910  16.867  1.00  0.00     0.115 A 
ATOM      5  C   UNL     1      13.913  11.294  16.848  1.00  0.00     0.047 A 
ATOM      6  C   UNL     1      13.424   9.091  15.978  1.00  0.00     0.047 A 
ATOM      7  C   UNL     1      13.011  11.854  15.940  1.00  0.00     0.012 A 
ATOM      8  C   UNL     1      12.521   9.647  15.066  1.00  0.00     0.012 A 
BRANCH   4   9
ATOM      9  O   UNL     1      15.021   9.340  17.768  1.00  0.00    -0.508 OA
ATOM     10  H   UNL     1      15.897   9.793  18.001  1.00  0.00     0.293 HD
ENDBRANCH   4   9
ENDBRANCH   1   3
BRANCH   2  11
ATOM     11  C   UNL     1      10.596  13.538  12.612  1.00  0.00    -0.018 A 
ATOM     12  C   UNL     1      10.845  13.449  11.232  1.00  0.00     0.054 A 
ATOM     13  C   UNL     1       9.471  14.265  13.054  1.00  0.00     0.054 A 
ATOM     14  C   UNL     1       9.979  14.044  10.308  1.00  0.00     0.119 A 
ATOM     15  C   UNL     1       8.605  14.864  12.133  1.00  0.00     0.119 A 
ATOM     16  C   UNL     1       8.857  14.749  10.760  1.00  0.00     0.092 A 
BRANCH  14  17
ATOM     17  O   UNL     1      10.245  13.930   8.946  1.00  0.00    -0.508 OA
ATOM     18  H   UNL     1       9.775  14.515   8.265  1.00  0.00     0.293 HD
ENDBRANCH  14  17
BRANCH  15  19
ATOM     19  O   UNL     1       7.499  15.575  12.592  1.00  0.00    -0.508 OA
ATOM     20  H   UNL     1       6.842  16.007  11.952  1.00  0.00     0.293 HD
ENDBRANCH  15  19
ENDBRANCH   2  11
TORSDOF 5
ENDMDL
MODEL 3
REMARK VINA RESULT:    -7.667      0.190      2.357
REMARK INTER + INTRA:          -9.565
REMARK INTER:                  -9.259
REMARK INTRA:                  -0.306
REMARK UNBOUND:                -0.329
REMARK SMILES Oc1ccc(/C=C/c2cc(O)cc(O)c2)cc1
REMARK SMILES IDX 6 1 7 2 5 3 2 4 3 5 17 6 4 7 16 8 1 9 8 11 9 12 15 13 10 14
REMARK SMILES IDX 13 15 12 16 11 17 14 19
REMARK H PARENT 1 10 11 18 14 20
REMARK Flexibility Score: inf
ROOT
ATOM      1  C   UNL     1      11.330  11.788  14.130  1.00  0.00     0.009 C 
ATOM      2  C   UNL     1      11.475  13.002  13.578  1.00  0.00     0.009 C 
ENDROOT
BRANCH   1   3
ATOM      3  C   UNL     1      12.301  11.198  15.087  1.00  0.00    -0.025 A 
ATOM      4  C   UNL     1      14.145   9.992  16.841  1.00  0.00     0.115 A 
ATOM      5  C   UNL     1      13.430   9.211  15.925  1.00  0.00     0.047 A 
ATOM      6  C   UNL     1      13.947  11.374  16.874  1.00  0.00     0.047 A 
ATOM      7  C   UNL     1      12.520   9.810  15.052  1.00  0.00     0.012 A 
ATOM      8  C   UNL     1      13.036  11.979  16.002  1.00  0.00     0.012 A 
BRANCH   4   9
ATOM      9  O   UNL     1      15.055   9.405  17.717  1.00  0.00    -0.508 OA
ATOM     10  H   UNL     1      14.797   8.618  18.300  1.00  0.00     0.293 HD
ENDBRANCH   4   9
ENDBRANCH   1   3
BRANCH   2  11
ATOM     11  C   UNL     1      10.505  13.592  12.622  1.00  0.00    -0.018 A 
ATOM     12  C   UNL     1      10.795  13.535  11.249  1.00  0.00     0.054 A 
ATOM     13  C   UNL     1       9.323  14.239  13.042  1.00  0.00     0.054 A 
ATOM     14  C   UNL     1       9.917  14.084  10.308  1.00  0.00     0.119 A 
ATOM     15  C   UNL     1       8.444  14.791  12.104  1.00  0.00     0.119 A 
ATOM     16  C   UNL     1       8.739  14.708  10.736  1.00  0.00     0.092 A 
BRANCH  14  17
ATOM     17  O   UNL     1      10.224  14.004   8.953  1.00  0.00    -0.508 OA
ATOM     18  H   UNL     1      11.183  13.933   8.631  1.00  0.00     0.293 HD
ENDBRANCH  14  17
BRANCH  15  19
ATOM     19  O   UNL     1       7.283  15.423  12.540  1.00  0.00    -0.508 OA
ATOM     20  H   UNL     1       7.279  16.401  12.808  1.00  0.00     0.293 HD
ENDBRANCH  15  19
ENDBRANCH   2  11
TORSDOF 5
ENDMDL
MODEL 4
REMARK VINA RESULT:    -7.437      1.437      7.609
REMARK INTER + INTRA:          -9.288
REMARK INTER:                  -8.982
REMARK INTRA:                  -0.306
REMARK UNBOUND:                -0.329
REMARK SMILES Oc1ccc(/C=C/c2cc(O)cc(O)c2)cc1
REMARK SMILES IDX 6 1 7 2 5 3 2 4 3 5 17 6 4 7 16 8 1 9 8 11 9 12 15 13 10 14
REMARK SMILES IDX 13 15 12 16 11 17 14 19
REMARK H PARENT 1 10 11 18 14 20
REMARK Flexibility Score: inf
ROOT
ATOM      1  C   UNL     1      12.450  12.557  13.665  1.00  0.00     0.009 C 
ATOM      2  C   UNL     1      12.065  11.552  14.465  1.00  0.00     0.009 C 
ENDROOT
BRANCH   1   3
ATOM      3  C   UNL     1      11.598  13.128  12.591  1.00  0.00    -0.025 A 
ATOM      4  C   UNL     1      10.036  14.153  10.483  1.00  0.00     0.115 A 
ATOM      5  C   UNL     1      11.266  13.539  10.214  1.00  0.00     0.047 A 
ATOM      6  C   UNL     1       9.582  14.244  11.801  1.00  0.00     0.047 A 
ATOM      7  C   UNL     1      12.037  13.026  11.259  1.00  0.00     0.012 A 
ATOM      8  C   UNL     1      10.351  13.733  12.850  1.00  0.00     0.012 A 
BRANCH   4   9
ATOM      9  O   UNL     1       9.258  14.668   9.448  1.00  0.00    -0.508 OA
ATOM     10  H   UNL     1       9.218  14.219   8.541  1.00  0.00     0.293 HD
ENDBRANCH   4   9
ENDBRANCH   1   3
BRANCH   2  11
ATOM     11  C   UNL     1      12.916  10.982  15.538  1.00  0.00    -0.018 A 
ATOM     12  C   UNL     1      12.979   9.585  15.676  1.00  0.00     0.054 A 
ATOM     13  C   UNL     1      13.633  11.788  16.447  1.00  0.00     0.054 A 
ATOM     14  C   UNL     1      13.761   8.999  16.677  1.00  0.00     0.119 A 
ATOM     15  C   UNL     1      14.414  11.205  17.451  1.00  0.00     0.119 A 
ATOM     16  C   UNL     1      14.481   9.810  17.562  1.00  0.00     0.092 A 
BRANCH  14  17
ATOM     17  O   UNL     1      13.814   7.612  16.783  1.00  0.00    -0.508 OA
ATOM     18  H   UNL     1      13.057   7.026  16.451  1.00  0.00     0.293 HD
ENDBRANCH  14  17
BRANCH  15  19
ATOM     19  O   UNL     1      15.115  12.020  18.336  1.00  0.00    -0.508 OA
ATOM     20  H   UNL     1      15.634  12.830  18.014  1.00  0.00     0.293 HD
ENDBRANCH  15  19
ENDBRANCH   2  11
TORSDOF 5
ENDMDL
MODEL 5
REMARK VINA RESULT:    -7.384      1.165      2.532
REMARK INTER + INTRA:          -9.225
REMARK INTER:                  -8.893
REMARK INTRA:                  -0.332
REMARK UNBOUND:                -0.329
REMARK SMILES Oc1ccc(/C=C/c2cc(O)cc(O)c2)cc1
REMARK SMILES IDX 6 1 7 2 5 3 2 4 3 5 17 6 4 7 16 8 1 9 8 11 9 12 15 13 10 14
REMARK SMILES IDX 13 15 12 16 11 17 14 19
REMARK H PARENT 1 10 11 18 14 20
REMARK Flexibility Score: inf
ROOT
ATOM      1  C   UNL     1      12.171  12.101  14.384  1.00  0.00     0.009 C 
ATOM      2  C   UNL     1      11.183  12.022  13.480  1.00  0.00     0.009 C 
ENDROOT
BRANCH   1   3
ATOM      3  C   UNL     1      12.606  10.961  15.231  1.00  0.00    -0.025 A 
ATOM      4  C   UNL     1      13.387   8.733  16.768  1.00  0.00     0.115 A 
ATOM      5  C   UNL     1      12.387   8.603  15.795  1.00  0.00     0.047 A 
ATOM      6  C   UNL     1      14.003   9.972  16.965  1.00  0.00     0.047 A 
ATOM      7  C   UNL     1      12.005   9.707  15.030  1.00  0.00     0.012 A 
ATOM      8  C   UNL     1      13.622  11.080  16.202  1.00  0.00     0.012 A 
BRANCH   4   9
ATOM      9  O   UNL     1      13.776   7.639  17.537  1.00  0.00    -0.508 OA
ATOM     10  H   UNL     1      13.121   6.909  17.789  1.00  0.00     0.293 HD
ENDBRANCH   4   9
ENDBRANCH   1   3
BRANCH   2  11
ATOM     11  C   UNL     1      10.749  13.161  12.634  1.00  0.00    -0.018 A 
ATOM     12  C   UNL     1      10.775  13.010  11.238  1.00  0.00     0.054 A 
ATOM     13  C   UNL     1      10.347  14.400  13.177  1.00  0.00     0.054 A 
ATOM     14  C   UNL     1      10.384  14.057  10.397  1.00  0.00     0.119 A 
ATOM     15  C   UNL     1       9.957  15.450  12.338  1.00  0.00     0.119 A 
ATOM     16  C   UNL     1       9.971  15.276  10.948  1.00  0.00     0.092 A 
BRANCH  14  17
ATOM     17  O   UNL     1      10.410  13.876   9.016  1.00  0.00    -0.508 OA
ATOM     18  H   UNL     1       9.665  13.388   8.532  1.00  0.00     0.293 HD
ENDBRANCH  14  17
BRANCH  15  19
ATOM     19  O   UNL     1       9.562  16.663  12.896  1.00  0.00    -0.508 OA
ATOM     20  H   UNL     1       8.880  17.259  12.441  1.00  0.00     0.293 HD
ENDBRANCH  15  19
ENDBRANCH   2  11
TORSDOF 5
ENDMDL
MODEL 6
REMARK VINA RESULT:    -7.384      1.399      7.572
REMARK INTER + INTRA:          -9.224
REMARK INTER:                  -8.909
REMARK INTRA:                  -0.315
REMARK UNBOUND:                -0.329
REMARK SMILES Oc1ccc(/C=C/c2cc(O)cc(O)c2)cc1
REMARK SMILES IDX 6 1 7 2 5 3 2 4 3 5 17 6 4 7 16 8 1 9 8 11 9 12 15 13 10 14
REMARK SMILES IDX 13 15 12 16 11 17 14 19
REMARK H PARENT 1 10 11 18 14 20
REMARK Flexibility Score: inf
ROOT
ATOM      1  C   UNL     1      12.385  12.554  13.691  1.00  0.00     0.009 C 
ATOM      2  C   UNL     1      12.045  11.494  14.439  1.00  0.00     0.009 C 
ENDROOT
BRANCH   1   3
ATOM      3  C   UNL     1      11.545  13.088  12.589  1.00  0.00    -0.025 A 
ATOM      4  C   UNL     1       9.901  14.159  10.568  1.00  0.00     0.115 A 
ATOM      5  C   UNL     1       9.526  14.269  11.913  1.00  0.00     0.047 A 
ATOM      6  C   UNL     1      11.100  13.526  10.233  1.00  0.00     0.047 A 
ATOM      7  C   UNL     1      10.345  13.742  12.915  1.00  0.00     0.012 A 
ATOM      8  C   UNL     1      11.922  12.996  11.233  1.00  0.00     0.012 A 
BRANCH   4   9
ATOM      9  O   UNL     1       9.093  14.681   9.560  1.00  0.00    -0.508 OA
ATOM     10  H   UNL     1       8.082  14.616   9.605  1.00  0.00     0.293 HD
ENDBRANCH   4   9
ENDBRANCH   1   3
BRANCH   2  11
ATOM     11  C   UNL     1      12.884  10.961  15.540  1.00  0.00    -0.018 A 
ATOM     12  C   UNL     1      12.991   9.568  15.690  1.00  0.00     0.054 A 
ATOM     13  C   UNL     1      13.547  11.797  16.463  1.00  0.00     0.054 A 
ATOM     14  C   UNL     1      13.764   9.016  16.718  1.00  0.00     0.119 A 
ATOM     15  C   UNL     1      14.318  11.248  17.493  1.00  0.00     0.119 A 
ATOM     16  C   UNL     1      14.430   9.857  17.617  1.00  0.00     0.092 A 
BRANCH  14  17
ATOM     17  O   UNL     1      13.860   7.632  16.837  1.00  0.00    -0.508 OA
ATOM     18  H   UNL     1      13.065   7.067  17.111  1.00  0.00     0.293 HD
ENDBRANCH  14  17
BRANCH  15  19
ATOM     19  O   UNL     1      14.966  12.093  18.391  1.00  0.00    -0.508 OA
ATOM     20  H   UNL     1      15.893  11.883  18.743  1.00  0.00     0.293 HD
ENDBRANCH  15  19
ENDBRANCH   2  11
TORSDOF 5
ENDMDL
MODEL 7
REMARK VINA RESULT:    -7.382      1.382      7.503
REMARK INTER + INTRA:          -9.222
REMARK INTER:                  -8.900
REMARK INTRA:                  -0.322
REMARK UNBOUND:                -0.329
REMARK SMILES Oc1ccc(/C=C/c2cc(O)cc(O)c2)cc1
REMARK SMILES IDX 6 1 7 2 5 3 2 4 3 5 17 6 4 7 16 8 1 9 8 11 9 12 15 13 10 14
REMARK SMILES IDX 13 15 12 16 11 17 14 19
REMARK H PARENT 1 10 11 18 14 20
REMARK Flexibility Score: inf
ROOT
ATOM      1  C   UNL     1      12.259  12.586  13.692  1.00  0.00     0.009 C 
ATOM      2  C   UNL     1      11.981  11.425  14.305  1.00  0.00     0.009 C 
ENDROOT
BRANCH   1   3
ATOM      3  C   UNL     1      11.424  13.167  12.611  1.00  0.00    -0.025 A 
ATOM      4  C   UNL     1       9.890  14.209  10.491  1.00  0.00     0.115 A 
ATOM      5  C   UNL     1      11.082  13.524  10.227  1.00  0.00     0.047 A 
ATOM      6  C   UNL     1       9.459  14.364  11.811  1.00  0.00     0.047 A 
ATOM      7  C   UNL     1      11.840  13.003  11.279  1.00  0.00     0.012 A 
ATOM      8  C   UNL     1      10.214  13.845  12.867  1.00  0.00     0.012 A 
BRANCH   4   9
ATOM      9  O   UNL     1       9.126  14.733   9.450  1.00  0.00    -0.508 OA
ATOM     10  H   UNL     1       8.923  14.192   8.618  1.00  0.00     0.293 HD
ENDBRANCH   4   9
ENDBRANCH   1   3
BRANCH   2  11
ATOM     11  C   UNL     1      12.816  10.844  15.385  1.00  0.00    -0.018 A 
ATOM     12  C   UNL     1      13.557  11.713  16.204  1.00  0.00     0.054 A 
ATOM     13  C   UNL     1      12.922   9.453  15.598  1.00  0.00     0.054 A 
ATOM     14  C   UNL     1      14.365  11.214  17.230  1.00  0.00     0.119 A 
ATOM     15  C   UNL     1      13.732   8.951  16.622  1.00  0.00     0.119 A 
ATOM     16  C   UNL     1      14.449   9.833  17.442  1.00  0.00     0.092 A 
BRANCH  14  17
ATOM     17  O   UNL     1      15.080  12.099  18.033  1.00  0.00    -0.508 OA
ATOM     18  H   UNL     1      14.669  12.964  18.364  1.00  0.00     0.293 HD
ENDBRANCH  14  17
BRANCH  15  19
ATOM     19  O   UNL     1      13.820   7.575  16.815  1.00  0.00    -0.508 OA
ATOM     20  H   UNL     1      13.055   6.955  16.575  1.00  0.00     0.293 HD
ENDBRANCH  15  19
ENDBRANCH   2  11
TORSDOF 5
ENDMDL
MODEL 8
REMARK VINA RESULT:    -7.369      1.257      1.759
REMARK INTER + INTRA:          -9.206
REMARK INTER:                  -8.879
REMARK INTRA:                  -0.327
REMARK UNBOUND:                -0.329
REMARK SMILES Oc1ccc(/C=C/c2cc(O)cc(O)c2)cc1
REMARK SMILES IDX 6 1 7 2 5 3 2 4 3 5 17 6 4 7 16 8 1 9 8 11 9 12 15 13 10 14
REMARK SMILES IDX 13 15 12 16 11 17 14 19
REMARK H PARENT 1 10 11 18 14 20
REMARK Flexibility Score: inf
ROOT
ATOM      1  C   UNL     1      12.362  11.780  14.525  1.00  0.00     0.009 C 
ATOM      2  C   UNL     1      11.223  11.825  13.816  1.00  0.00     0.009 C 
ENDROOT
BRANCH   1   3
ATOM      3  C   UNL     1      12.727  10.659  15.426  1.00  0.00    -0.025 A 
ATOM      4  C   UNL     1      13.369   8.464  17.072  1.00  0.00     0.115 A 
ATOM      5  C   UNL     1      12.346   8.357  16.123  1.00  0.00     0.047 A 
ATOM      6  C   UNL     1      14.079   9.662  17.192  1.00  0.00     0.047 A 
ATOM      7  C   UNL     1      12.031   9.444  15.303  1.00  0.00     0.012 A 
ATOM      8  C   UNL     1      13.767  10.753  16.374  1.00  0.00     0.012 A 
BRANCH   4   9
ATOM      9  O   UNL     1      13.692   7.387  17.895  1.00  0.00    -0.508 OA
ATOM     10  H   UNL     1      14.654   7.129  18.076  1.00  0.00     0.293 HD
ENDBRANCH   4   9
ENDBRANCH   1   3
BRANCH   2  11
ATOM     11  C   UNL     1      10.859  12.947  12.915  1.00  0.00    -0.018 A 
ATOM     12  C   UNL     1      10.348  14.126  13.483  1.00  0.00     0.054 A 
ATOM     13  C   UNL     1      10.970  12.859  11.512  1.00  0.00     0.054 A 
ATOM     14  C   UNL     1       9.982  15.209  12.675  1.00  0.00     0.119 A 
ATOM     15  C   UNL     1      10.602  13.939  10.702  1.00  0.00     0.119 A 
ATOM     16  C   UNL     1      10.113  15.116  11.285  1.00  0.00     0.092 A 
BRANCH  14  17
ATOM     17  O   UNL     1       9.490  16.370  13.266  1.00  0.00    -0.508 OA
ATOM     18  H   UNL     1       9.693  16.600  14.231  1.00  0.00     0.293 HD
ENDBRANCH  14  17
BRANCH  15  19
ATOM     19  O   UNL     1      10.722  13.832   9.318  1.00  0.00    -0.508 OA
ATOM     20  H   UNL     1      10.479  12.977   8.830  1.00  0.00     0.293 HD
ENDBRANCH  15  19
ENDBRANCH   2  11
TORSDOF 5
ENDMDL
MODEL 9
REMARK VINA RESULT:    -7.251      3.180      7.033
REMARK INTER + INTRA:          -9.063
REMARK INTER:                  -8.735
REMARK INTRA:                  -0.329
REMARK UNBOUND:                -0.329
REMARK SMILES Oc1ccc(/C=C/c2cc(O)cc(O)c2)cc1
REMARK SMILES IDX 6 1 7 2 5 3 2 4 3 5 17 6 4 7 16 8 1 9 8 11 9 12 15 13 10 14
REMARK SMILES IDX 13 15 12 16 11 17 14 19
REMARK H PARENT 1 10 11 18 14 20
REMARK Flexibility Score: inf
ROOT
ATOM      1  C   UNL     1      12.163  11.809  14.375  1.00  0.00     0.009 C 
ATOM      2  C   UNL     1      12.906  11.289  15.364  1.00  0.00     0.009 C 
ENDROOT
BRANCH   1   3
ATOM      3  C   UNL     1      12.626  12.905  13.487  1.00  0.00    -0.025 A 
ATOM      4  C   UNL     1      13.547  15.032  11.885  1.00  0.00     0.115 A 
ATOM      5  C   UNL     1      13.449  15.186  13.273  1.00  0.00     0.047 A 
ATOM      6  C   UNL     1      13.196  13.813  11.299  1.00  0.00     0.047 A 
ATOM      7  C   UNL     1      12.998  14.129  14.068  1.00  0.00     0.012 A 
ATOM      8  C   UNL     1      12.743  12.753  12.089  1.00  0.00     0.012 A 
BRANCH   4   9
ATOM      9  O   UNL     1      13.995  16.079  11.083  1.00  0.00    -0.508 OA
ATOM     10  H   UNL     1      14.967  16.157  10.809  1.00  0.00     0.293 HD
ENDBRANCH   4   9
ENDBRANCH   1   3
BRANCH   2  11
ATOM     11  C   UNL     1      12.443  10.194  16.252  1.00  0.00    -0.018 A 
ATOM     12  C   UNL     1      11.085  10.149  16.612  1.00  0.00     0.054 A 
ATOM     13  C   UNL     1      13.318   9.220  16.777  1.00  0.00     0.054 A 
ATOM     14  C   UNL     1      10.601   9.141  17.453  1.00  0.00     0.119 A 
ATOM     15  C   UNL     1      12.837   8.212  17.620  1.00  0.00     0.119 A 
ATOM     16  C   UNL     1      11.477   8.171  17.954  1.00  0.00     0.092 A 
BRANCH  14  17
ATOM     17  O   UNL     1       9.249   9.115  17.786  1.00  0.00    -0.508 OA
ATOM     18  H   UNL     1       8.673   8.303  17.596  1.00  0.00     0.293 HD
ENDBRANCH  14  17
BRANCH  15  19
ATOM     19  O   UNL     1      13.720   7.261  18.125  1.00  0.00    -0.508 OA
ATOM     20  H   UNL     1      14.709   7.285  17.906  1.00  0.00     0.293 HD
ENDBRANCH  15  19
ENDBRANCH   2  11
TORSDOF 5
ENDMDL
MODEL 10
REMARK VINA RESULT:    -7.182      3.128      7.288
REMARK INTER + INTRA:          -8.981
REMARK INTER:                  -8.678
REMARK INTRA:                  -0.303
REMARK UNBOUND:                -0.329
REMARK SMILES Oc1ccc(/C=C/c2cc(O)cc(O)c2)cc1
REMARK SMILES IDX 6 1 7 2 5 3 2 4 3 5 17 6 4 7 16 8 1 9 8 11 9 12 15 13 10 14
REMARK SMILES IDX 13 15 12 16 11 17 14 19
REMARK H PARENT 1 10 11 18 14 20
REMARK Flexibility Score: inf
ROOT
ATOM      1  C   UNL     1      12.077  11.774  14.403  1.00  0.00     0.009 C 
ATOM      2  C   UNL     1      12.809  11.225  15.384  1.00  0.00     0.009 C 
ENDROOT
BRANCH   1   3
ATOM      3  C   UNL     1      12.589  12.821  13.482  1.00  0.00    -0.025 A 
ATOM      4  C   UNL     1      13.507  14.760  11.657  1.00  0.00     0.115 A 
ATOM      5  C   UNL     1      12.997  13.541  11.192  1.00  0.00     0.047 A 
ATOM      6  C   UNL     1      13.549  15.014  13.030  1.00  0.00     0.047 A 
ATOM      7  C   UNL     1      12.536  12.583  12.098  1.00  0.00     0.012 A 
ATOM      8  C   UNL     1      13.090  14.057  13.940  1.00  0.00     0.012 A 
BRANCH   4   9
ATOM      9  O   UNL     1      13.969  15.723  10.763  1.00  0.00    -0.508 OA
ATOM     10  H   UNL     1      14.859  16.188  10.899  1.00  0.00     0.293 HD
ENDBRANCH   4   9
ENDBRANCH   1   3
BRANCH   2  11
ATOM     11  C   UNL     1      12.297  10.179  16.304  1.00  0.00    -0.018 A 
ATOM     12  C   UNL     1      13.195   9.212  16.788  1.00  0.00     0.054 A 
ATOM     13  C   UNL     1      10.940  10.097  16.681  1.00  0.00     0.054 A 
ATOM     14  C   UNL     1      12.760   8.200  17.651  1.00  0.00     0.119 A 
ATOM     15  C   UNL     1      10.502   9.085  17.542  1.00  0.00     0.119 A 
ATOM     16  C   UNL     1      11.414   8.139  18.031  1.00  0.00     0.092 A 
BRANCH  14  17
ATOM     17  O   UNL     1      13.673   7.261  18.123  1.00  0.00    -0.508 OA
ATOM     18  H   UNL     1      14.478   7.536  18.674  1.00  0.00     0.293 HD
ENDBRANCH  14  17
BRANCH  15  19
ATOM     19  O   UNL     1       9.159   9.024  17.903  1.00  0.00    -0.508 OA
ATOM     20  H   UNL     1       8.827   9.409  18.781  1.00  0.00     0.293 HD
ENDBRANCH  15  19
ENDBRANCH   2  11
TORSDOF 5
ENDMDL
MODEL 11
REMARK VINA RESULT:    -7.128      4.623      9.407
REMARK INTER + INTRA:          -8.915
REMARK INTER:                  -8.607
REMARK INTRA:                  -0.308
REMARK UNBOUND:                -0.329
REMARK SMILES Oc1ccc(/C=C/c2cc(O)cc(O)c2)cc1
REMARK SMILES IDX 6 1 7 2 5 3 2 4 3 5 17 6 4 7 16 8 1 9 8 11 9 12 15 13 10 14
REMARK SMILES IDX 13 15 12 16 11 17 14 19
REMARK H PARENT 1 10 11 18 14 20
REMARK Flexibility Score: inf
ROOT
ATOM      1  C   UNL     1      15.432  11.350  18.226  1.00  0.00     0.009 C 
ATOM      2  C   UNL     1      16.283  12.362  17.998  1.00  0.00     0.009 C 
ENDROOT
BRANCH   1   3
ATOM      3  C   UNL     1      14.465  10.845  17.219  1.00  0.00    -0.025 A 
ATOM      4  C   UNL     1      12.642   9.790  15.349  1.00  0.00     0.115 A 
ATOM      5  C   UNL     1      13.497   8.937  16.057  1.00  0.00     0.047 A 
ATOM      6  C   UNL     1      12.689  11.166  15.582  1.00  0.00     0.047 A 
ATOM      7  C   UNL     1      14.397   9.460  16.988  1.00  0.00     0.012 A 
ATOM      8  C   UNL     1      13.589  11.695  16.512  1.00  0.00     0.012 A 
BRANCH   4   9
ATOM      9  O   UNL     1      11.740   9.279  14.418  1.00  0.00    -0.508 OA
ATOM     10  H   UNL     1      11.857   8.356  14.018  1.00  0.00     0.293 HD
ENDBRANCH   4   9
ENDBRANCH   1   3
BRANCH   2  11
ATOM     11  C   UNL     1      17.249  12.866  19.005  1.00  0.00    -0.018 A 
ATOM     12  C   UNL     1      18.623  12.763  18.730  1.00  0.00     0.054 A 
ATOM     13  C   UNL     1      16.842  13.411  20.242  1.00  0.00     0.054 A 
ATOM     14  C   UNL     1      19.573  13.217  19.651  1.00  0.00     0.119 A 
ATOM     15  C   UNL     1      17.790  13.863  21.166  1.00  0.00     0.119 A 
ATOM     16  C   UNL     1      19.156  13.771  20.867  1.00  0.00     0.092 A 
BRANCH  14  17
ATOM     17  O   UNL     1      20.928  13.112  19.347  1.00  0.00    -0.508 OA
ATOM     18  H   UNL     1      21.439  13.883  18.933  1.00  0.00     0.293 HD
ENDBRANCH  14  17
BRANCH  15  19
ATOM     19  O   UNL     1      17.365  14.399  22.379  1.00  0.00    -0.508 OA
ATOM     20  H   UNL     1      16.476  14.139  22.791  1.00  0.00     0.293 HD
ENDBRANCH  15  19
ENDBRANCH   2  11
TORSDOF 5
ENDMDL
MODEL 12
REMARK VINA RESULT:    -7.109      2.071      7.410
REMARK INTER + INTRA:          -8.893
REMARK INTER:                  -8.569
REMARK INTRA:                  -0.324
REMARK UNBOUND:                -0.329
REMARK SMILES Oc1ccc(/C=C/c2cc(O)cc(O)c2)cc1
REMARK SMILES IDX 6 1 7 2 5 3 2 4 3 5 17 6 4 7 16 8 1 9 8 11 9 12 15 13 10 14
REMARK SMILES IDX 13 15 12 16 11 17 14 19
REMARK H PARENT 1 10 11 18 14 20
REMARK Flexibility Score: inf
ROOT
ATOM      1  C   UNL     1      12.519  12.167  13.938  1.00  0.00     0.009 C 
ATOM      2  C   UNL     1      11.831  11.108  14.392  1.00  0.00     0.009 C 
ENDROOT
BRANCH   1   3
ATOM      3  C   UNL     1      12.252  12.823  12.633  1.00  0.00    -0.025 A 
ATOM      4  C   UNL     1      11.847  14.056  10.133  1.00  0.00     0.115 A 
ATOM      5  C   UNL     1      13.141  13.925  10.652  1.00  0.00     0.047 A 
ATOM      6  C   UNL     1      10.758  13.564  10.856  1.00  0.00     0.047 A 
ATOM      7  C   UNL     1      13.342  13.308  11.889  1.00  0.00     0.012 A 
ATOM      8  C   UNL     1      10.954  12.947  12.096  1.00  0.00     0.012 A 
BRANCH   4   9
ATOM      9  O   UNL     1      11.635  14.669   8.900  1.00  0.00    -0.508 OA
ATOM     10  H   UNL     1      11.909  14.224   8.033  1.00  0.00     0.293 HD
ENDBRANCH   4   9
ENDBRANCH   1   3
BRANCH   2  11
ATOM     11  C   UNL     1      12.098  10.452  15.696  1.00  0.00    -0.018 A 
ATOM     12  C   UNL     1      13.426  10.368  16.147  1.00  0.00     0.054 A 
ATOM     13  C   UNL     1      11.076   9.878  16.480  1.00  0.00     0.054 A 
ATOM     14  C   UNL     1      13.731   9.751  17.366  1.00  0.00     0.119 A 
ATOM     15  C   UNL     1      11.377   9.259  17.698  1.00  0.00     0.119 A 
ATOM     16  C   UNL     1      12.705   9.200  18.143  1.00  0.00     0.092 A 
BRANCH  14  17
ATOM     17  O   UNL     1      15.055   9.692  17.793  1.00  0.00    -0.508 OA
ATOM     18  H   UNL     1      15.783   9.300  17.207  1.00  0.00     0.293 HD
ENDBRANCH  14  17
BRANCH  15  19
ATOM     19  O   UNL     1      10.352   8.700  18.457  1.00  0.00    -0.508 OA
ATOM     20  H   UNL     1      10.512   8.362  19.399  1.00  0.00     0.293 HD
ENDBRANCH  15  19
ENDBRANCH   2  11
TORSDOF 5
ENDMDL
MODEL 13
REMARK VINA RESULT:    -7.085      4.575      9.204
REMARK INTER + INTRA:          -8.863
REMARK INTER:                  -8.550
REMARK INTRA:                  -0.314
REMARK UNBOUND:                -0.329
REMARK SMILES Oc1ccc(/C=C/c2cc(O)cc(O)c2)cc1
REMARK SMILES IDX 6 1 7 2 5 3 2 4 3 5 17 6 4 7 16 8 1 9 8 11 9 12 15 13 10 14
REMARK SMILES IDX 13 15 12 16 11 17 14 19
REMARK H PARENT 1 10 11 18 14 20
REMARK Flexibility Score: inf
ROOT
ATOM      1  C   UNL     1      15.456  11.395  18.215  1.00  0.00     0.009 C 
ATOM      2  C   UNL     1      16.336  12.381  17.982  1.00  0.00     0.009 C 
ENDROOT
BRANCH   1   3
ATOM      3  C   UNL     1      14.469  10.919  17.214  1.00  0.00    -0.025 A 
ATOM      4  C   UNL     1      12.606   9.918  15.353  1.00  0.00     0.115 A 
ATOM      5  C   UNL     1      13.476   9.045  16.017  1.00  0.00     0.047 A 
ATOM      6  C   UNL     1      12.658  11.287  15.626  1.00  0.00     0.047 A 
ATOM      7  C   UNL     1      14.396   9.541  16.945  1.00  0.00     0.012 A 
ATOM      8  C   UNL     1      13.578  11.789  16.552  1.00  0.00     0.012 A 
BRANCH   4   9
ATOM      9  O   UNL     1      11.685   9.434  14.427  1.00  0.00    -0.508 OA
ATOM     10  H   UNL     1      10.820   8.994  14.720  1.00  0.00     0.293 HD
ENDBRANCH   4   9
ENDBRANCH   1   3
BRANCH   2  11
ATOM     11  C   UNL     1      17.322  12.857  18.983  1.00  0.00    -0.018 A 
ATOM     12  C   UNL     1      16.848  13.409  20.185  1.00  0.00     0.054 A 
ATOM     13  C   UNL     1      18.714  12.811  18.758  1.00  0.00     0.054 A 
ATOM     14  C   UNL     1      17.738  13.879  21.157  1.00  0.00     0.119 A 
ATOM     15  C   UNL     1      19.607  13.283  19.727  1.00  0.00     0.119 A 
ATOM     16  C   UNL     1      19.117  13.812  20.928  1.00  0.00     0.092 A 
BRANCH  14  17
ATOM     17  O   UNL     1      17.240  14.411  22.344  1.00  0.00    -0.508 OA
ATOM     18  H   UNL     1      16.252  14.596  22.467  1.00  0.00     0.293 HD
ENDBRANCH  14  17
BRANCH  15  19
ATOM     19  O   UNL     1      20.977  13.226  19.484  1.00  0.00    -0.508 OA
ATOM     20  H   UNL     1      21.553  12.484  19.866  1.00  0.00     0.293 HD
ENDBRANCH  15  19
ENDBRANCH   2  11
TORSDOF 5
ENDMDL
MODEL 14
REMARK VINA RESULT:    -7.003      5.134      7.743
REMARK INTER + INTRA:          -8.765
REMARK INTER:                  -8.437
REMARK INTRA:                  -0.328
REMARK UNBOUND:                -0.329
REMARK SMILES Oc1ccc(/C=C/c2cc(O)cc(O)c2)cc1
REMARK SMILES IDX 6 1 7 2 5 3 2 4 3 5 17 6 4 7 16 8 1 9 8 11 9 12 15 13 10 14
REMARK SMILES IDX 13 15 12 16 11 17 14 19
REMARK H PARENT 1 10 11 18 14 20
REMARK Flexibility Score: inf
ROOT
ATOM      1  C   UNL     1      16.067  11.637  18.435  1.00  0.00     0.009 C 
ATOM      2  C   UNL     1      15.031  11.695  17.584  1.00  0.00     0.009 C 
ENDROOT
BRANCH   1   3
ATOM      3  C   UNL     1      16.859  12.822  18.850  1.00  0.00    -0.025 A 
ATOM      4  C   UNL     1      18.392  15.082  19.538  1.00  0.00     0.115 A 
ATOM      5  C   UNL     1      18.620  14.419  18.326  1.00  0.00     0.047 A 
ATOM      6  C   UNL     1      17.393  14.625  20.400  1.00  0.00     0.047 A 
ATOM      7  C   UNL     1      17.856  13.301  17.983  1.00  0.00     0.012 A 
ATOM      8  C   UNL     1      16.626  13.506  20.062  1.00  0.00     0.012 A 
BRANCH   4   9
ATOM      9  O   UNL     1      19.149  16.198  19.890  1.00  0.00    -0.508 OA
ATOM     10  H   UNL     1      18.731  16.996  20.354  1.00  0.00     0.293 HD
ENDBRANCH   4   9
ENDBRANCH   1   3
BRANCH   2  11
ATOM     11  C   UNL     1      14.239  10.510  17.170  1.00  0.00    -0.018 A 
ATOM     12  C   UNL     1      14.309   9.347  17.955  1.00  0.00     0.054 A 
ATOM     13  C   UNL     1      13.451  10.496  16.000  1.00  0.00     0.054 A 
ATOM     14  C   UNL     1      13.588   8.201  17.602  1.00  0.00     0.119 A 
ATOM     15  C   UNL     1      12.731   9.350  15.643  1.00  0.00     0.119 A 
ATOM     16  C   UNL     1      12.796   8.205  16.447  1.00  0.00     0.092 A 
BRANCH  14  17
ATOM     17  O   UNL     1      13.667   7.066  18.404  1.00  0.00    -0.508 OA
ATOM     18  H   UNL     1      14.149   7.080  19.295  1.00  0.00     0.293 HD
ENDBRANCH  14  17
BRANCH  15  19
ATOM     19  O   UNL     1      11.957   9.359  14.485  1.00  0.00    -0.508 OA
ATOM     20  H   UNL     1      12.180   8.765  13.694  1.00  0.00     0.293 HD
ENDBRANCH  15  19
ENDBRANCH   2  11
TORSDOF 5
ENDMDL
MODEL 15
REMARK VINA RESULT:    -6.889      5.170      7.814
REMARK INTER + INTRA:          -8.628
REMARK INTER:                  -8.316
REMARK INTRA:                  -0.311
REMARK UNBOUND:                -0.329
REMARK SMILES Oc1ccc(/C=C/c2cc(O)cc(O)c2)cc1
REMARK SMILES IDX 6 1 7 2 5 3 2 4 3 5 17 6 4 7 16 8 1 9 8 11 9 12 15 13 10 14
REMARK SMILES IDX 13 15 12 16 11 17 14 19
REMARK H PARENT 1 10 11 18 14 20
REMARK Flexibility Score: inf
ROOT
ATOM      1  C   UNL     1      16.108  11.734  18.291  1.00  0.00     0.009 C 
ATOM      2  C   UNL     1      15.012  11.715  17.517  1.00  0.00     0.009 C 
ENDROOT
BRANCH   1   3
ATOM      3  C   UNL     1      16.847  12.972  18.643  1.00  0.00    -0.025 A 
ATOM      4  C   UNL     1      18.251  15.290  19.411  1.00  0.00     0.115 A 
ATOM      5  C   UNL     1      17.597  14.512  20.374  1.00  0.00     0.047 A 
ATOM      6  C   UNL     1      18.213  14.906  18.069  1.00  0.00     0.047 A 
ATOM      7  C   UNL     1      16.906  13.359  19.993  1.00  0.00     0.012 A 
ATOM      8  C   UNL     1      17.522  13.754  17.682  1.00  0.00     0.012 A 
BRANCH   4   9
ATOM      9  O   UNL     1      18.944  16.442  19.779  1.00  0.00    -0.508 OA
ATOM     10  H   UNL     1      19.449  16.996  19.099  1.00  0.00     0.293 HD
ENDBRANCH   4   9
ENDBRANCH   1   3
BRANCH   2  11
ATOM     11  C   UNL     1      14.274  10.477  17.165  1.00  0.00    -0.018 A 
ATOM     12  C   UNL     1      13.516  10.459  15.982  1.00  0.00     0.054 A 
ATOM     13  C   UNL     1      14.274   9.333  17.990  1.00  0.00     0.054 A 
ATOM     14  C   UNL     1      12.796   9.319  15.611  1.00  0.00     0.119 A 
ATOM     15  C   UNL     1      13.553   8.192  17.622  1.00  0.00     0.119 A 
ATOM     16  C   UNL     1      12.818   8.184  16.430  1.00  0.00     0.092 A 
BRANCH  14  17
ATOM     17  O   UNL     1      12.062   9.326  14.427  1.00  0.00    -0.508 OA
ATOM     18  H   UNL     1      12.232   8.647  13.695  1.00  0.00     0.293 HD
ENDBRANCH  14  17
BRANCH  15  19
ATOM     19  O   UNL     1      13.569   7.073  18.451  1.00  0.00    -0.508 OA
ATOM     20  H   UNL     1      14.175   7.022  19.262  1.00  0.00     0.293 HD
ENDBRANCH  15  19
ENDBRANCH   2  11
TORSDOF 5
ENDMDL
