MODEL 1
REMARK VINA RESULT:    -6.248      0.000      0.000
REMARK INTER + INTRA:         -10.758
REMARK INTER:                  -9.901
REMARK INTRA:                  -0.858
REMARK UNBOUND:                -0.858
REMARK SMILES C[C@@H]1C[C@H]2O[C@@H]2/C=C\C=C\C(=O)Cc2c(Cl)c(O)cc(O)c2C(=O)O1
REMARK SMILES IDX 1 1 2 2 3 3 4 4 5 5 6 6 7 7 8 8 9 9 10 10 11 11 12 12 25 14
REMARK SMILES IDX 23 15 24 16 22 17 14 18 20 19 15 20 19 21 16 22 17 23 13 24
REMARK SMILES IDX 21 26 18 28
REMARK H PARENT 21 27 18 29
REMARK Flexibility Score: 60.00
ROOT
ATOM      1  C   UNL     1       9.149  10.196  20.472  1.00  0.00     0.053 C 
ATOM      2  C   UNL     1      10.515   9.747  19.941  1.00  0.00     0.176 C 
ENDROOT
BRANCH   2   3
ATOM      3  C   UNL     1      11.643  10.035  20.981  1.00  0.00     0.080 C 
BRANCH   3   4
ATOM      4  C   UNL     1      12.699  10.959  20.373  1.00  0.00     0.155 C 
ATOM      5  O   UNL     1      13.374  11.555  21.467  1.00  0.00    -0.365 OA
ATOM      6  C   UNL     1      14.167  10.851  20.562  1.00  0.00     0.170 C 
BRANCH   6   7
ATOM      7  C   UNL     1      15.015  11.800  19.733  1.00  0.00     0.007 C 
ATOM      8  C   UNL     1      15.236  11.735  18.398  1.00  0.00    -0.001 C 
BRANCH   8   9
ATOM      9  C   UNL     1      14.773  10.644  17.509  1.00  0.00     0.003 C 
ATOM     10  C   UNL     1      13.831  10.856  16.590  1.00  0.00     0.047 C 
BRANCH  10  11
ATOM     11  C   UNL     1      13.147   9.767  15.855  1.00  0.00     0.160 CG0
ATOM     12  O   UNL     1      13.719   8.646  15.822  1.00  0.00    -0.294 OA
ATOM     13  G   UNL     1      11.874   9.946  15.046  1.00  0.00     0.000 G0
ENDBRANCH  10  11
ENDBRANCH   8   9
ENDBRANCH   6   7
ENDBRANCH   3   4
ENDBRANCH   2   3
BRANCH   2  14
ATOM     14  O   UNL     1      10.824  10.427  18.715  1.00  0.00    -0.459 OA
BRANCH  14  15
ATOM     15  C   UNL     1      10.174  10.275  17.491  1.00  0.00     0.342 C 
ATOM     16  O   UNL     1       9.577   9.205  17.196  1.00  0.00    -0.246 OA
BRANCH  15  17
ATOM     17  C   UNL     1      10.282  11.362  16.496  1.00  0.00     0.107 A 
ATOM     18  C   UNL     1      11.070  11.230  15.308  1.00  0.00     0.000 A 
ATOM     19  C   UNL     1       9.572  12.559  16.741  1.00  0.00     0.134 A 
ATOM     20  C   UNL     1      11.230  12.376  14.480  1.00  0.00     0.087 A 
ATOM     21  C   UNL     1       9.684  13.628  15.861  1.00  0.00     0.094 A 
ATOM     22  Cl  UNL     1      12.381  12.440  13.144  1.00  0.00    -0.080 Cl
ATOM     23  C   UNL     1      10.517  13.552  14.749  1.00  0.00     0.138 A 
BRANCH  18  24
ATOM     24  C   UNL     1      11.868   9.947  15.052  1.00  0.00     0.118 CG0
ATOM     25  G   UNL     1      13.150   9.783  15.851  1.00  0.00     0.000 G0
ENDBRANCH  18  24
BRANCH  19  26
ATOM     26  O   UNL     1       8.736  12.713  17.851  1.00  0.00    -0.507 OA
ATOM     27  H   UNL     1       8.165  11.967  18.227  1.00  0.00     0.293 HD
ENDBRANCH  19  26
BRANCH  23  28
ATOM     28  O   UNL     1      10.651  14.655  13.906  1.00  0.00    -0.506 OA
ATOM     29  H   UNL     1      11.315  15.395  14.101  1.00  0.00     0.293 HD
ENDBRANCH  23  28
ENDBRANCH  15  17
ENDBRANCH  14  15
ENDBRANCH   2  14
TORSDOF 2
ENDMDL
MODEL 2
REMARK VINA RESULT:    -6.084      2.408      3.874
REMARK INTER + INTRA:         -10.499
REMARK INTER:                  -9.525
REMARK INTRA:                  -0.974
REMARK UNBOUND:                -0.858
REMARK SMILES C[C@@H]1C[C@H]2O[C@@H]2/C=C\C=C\C(=O)Cc2c(Cl)c(O)cc(O)c2C(=O)O1
REMARK SMILES IDX 1 1 2 2 3 3 4 4 5 5 6 6 7 7 8 8 9 9 10 10 11 11 12 12 25 14
REMARK SMILES IDX 23 15 24 16 22 17 14 18 20 19 15 20 19 21 16 22 17 23 13 24
REMARK SMILES IDX 21 26 18 28
REMARK H PARENT 21 27 18 29
REMARK Flexibility Score: 60.00
ROOT
ATOM      1  C   UNL     1      13.954   7.947  19.842  1.00  0.00     0.053 C 
ATOM      2  C   UNL     1      13.508   7.859  18.378  1.00  0.00     0.176 C 
ENDROOT
BRANCH   2   3
ATOM      3  C   UNL     1      14.344   8.822  17.478  1.00  0.00     0.080 C 
BRANCH   3   4
ATOM      4  C   UNL     1      14.462  10.195  18.140  1.00  0.00     0.155 C 
ATOM      5  O   UNL     1      15.164  11.013  17.222  1.00  0.00    -0.365 OA
ATOM      6  C   UNL     1      13.906  11.468  17.616  1.00  0.00     0.170 C 
BRANCH   6   7
ATOM      7  C   UNL     1      14.028  12.673  18.531  1.00  0.00     0.007 C 
ATOM      8  C   UNL     1      13.111  13.107  19.429  1.00  0.00    -0.001 C 
BRANCH   8   9
ATOM      9  C   UNL     1      11.754  12.538  19.603  1.00  0.00     0.003 C 
ATOM     10  C   UNL     1      11.579  11.248  19.890  1.00  0.00     0.047 C 
BRANCH  10  11
ATOM     11  C   UNL     1      10.265  10.568  19.823  1.00  0.00     0.160 CG0
ATOM     12  O   UNL     1       9.755  10.188  20.910  1.00  0.00    -0.294 OA
ATOM     13  G   UNL     1       9.558  10.193  18.531  1.00  0.00     0.000 G0
ENDBRANCH  10  11
ENDBRANCH   8   9
ENDBRANCH   6   7
ENDBRANCH   3   4
ENDBRANCH   2   3
BRANCH   2  14
ATOM     14  O   UNL     1      12.118   8.195  18.258  1.00  0.00    -0.459 OA
BRANCH  14  15
ATOM     15  C   UNL     1      11.383   8.301  17.077  1.00  0.00     0.342 C 
ATOM     16  O   UNL     1      11.035   7.276  16.431  1.00  0.00    -0.246 OA
BRANCH  15  17
ATOM     17  C   UNL     1      11.104   9.648  16.539  1.00  0.00     0.107 A 
ATOM     18  C   UNL     1      10.248  10.574  17.216  1.00  0.00     0.000 A 
ATOM     19  C   UNL     1      11.715  10.014  15.319  1.00  0.00     0.134 A 
ATOM     20  C   UNL     1       9.923  11.792  16.554  1.00  0.00     0.087 A 
ATOM     21  C   UNL     1      11.441  11.251  14.746  1.00  0.00     0.094 A 
ATOM     22  Cl  UNL     1       8.679  12.898  17.139  1.00  0.00    -0.080 Cl
ATOM     23  C   UNL     1      10.542  12.129  15.343  1.00  0.00     0.138 A 
BRANCH  18  24
ATOM     24  C   UNL     1       9.556  10.171  18.522  1.00  0.00     0.118 CG0
ATOM     25  G   UNL     1      10.264  10.568  19.807  1.00  0.00     0.000 G0
ENDBRANCH  18  24
BRANCH  19  26
ATOM     26  O   UNL     1      12.610   9.172  14.654  1.00  0.00    -0.507 OA
ATOM     27  H   UNL     1      13.614   9.301  14.669  1.00  0.00     0.293 HD
ENDBRANCH  19  26
BRANCH  23  28
ATOM     28  O   UNL     1      10.245  13.344  14.725  1.00  0.00    -0.506 OA
ATOM     29  H   UNL     1      10.138  13.416  13.719  1.00  0.00     0.293 HD
ENDBRANCH  23  28
ENDBRANCH  15  17
ENDBRANCH  14  15
ENDBRANCH   2  14
TORSDOF 2
ENDMDL
MODEL 3
REMARK VINA RESULT:    -5.966      2.241      4.552
REMARK INTER + INTRA:         -10.311
REMARK INTER:                  -9.187
REMARK INTRA:                  -1.124
REMARK UNBOUND:                -0.858
REMARK SMILES C[C@@H]1C[C@H]2O[C@@H]2/C=C\C=C\C(=O)Cc2c(Cl)c(O)cc(O)c2C(=O)O1
REMARK SMILES IDX 1 1 2 2 3 3 4 4 5 5 6 6 7 7 8 8 9 9 10 10 11 11 12 12 25 14
REMARK SMILES IDX 23 15 24 16 22 17 14 18 20 19 15 20 19 21 16 22 17 23 13 24
REMARK SMILES IDX 21 26 18 28
REMARK H PARENT 21 27 18 29
REMARK Flexibility Score: 60.00
ROOT
ATOM      1  C   UNL     1      11.442   6.871  17.685  1.00  0.00     0.053 C 
ATOM      2  C   UNL     1      12.296   8.135  17.834  1.00  0.00     0.176 C 
ENDROOT
BRANCH   2   3
ATOM      3  C   UNL     1      12.137   8.754  19.258  1.00  0.00     0.080 C 
BRANCH   3   4
ATOM      4  C   UNL     1      10.733   9.337  19.427  1.00  0.00     0.155 C 
ATOM      5  O   UNL     1      10.644   9.759  20.776  1.00  0.00    -0.365 OA
ATOM      6  C   UNL     1      10.408  10.735  19.809  1.00  0.00     0.170 C 
BRANCH   6   7
ATOM      7  C   UNL     1       8.938  11.111  19.766  1.00  0.00     0.007 C 
ATOM      8  C   UNL     1       8.348  11.987  18.917  1.00  0.00    -0.001 C 
BRANCH   8   9
ATOM      9  C   UNL     1       9.064  12.836  17.936  1.00  0.00     0.003 C 
ATOM     10  C   UNL     1       9.411  12.362  16.739  1.00  0.00     0.047 C 
BRANCH  10  11
ATOM     11  C   UNL     1      10.341  13.061  15.823  1.00  0.00     0.160 CG0
ATOM     12  O   UNL     1      10.022  14.220  15.449  1.00  0.00    -0.294 OA
ATOM     13  G   UNL     1      11.582  12.430  15.214  1.00  0.00     0.000 G0
ENDBRANCH  10  11
ENDBRANCH   8   9
ENDBRANCH   6   7
ENDBRANCH   3   4
ENDBRANCH   2   3
BRANCH   2  14
ATOM     14  O   UNL     1      11.917   9.113  16.853  1.00  0.00    -0.459 OA
BRANCH  14  15
ATOM     15  C   UNL     1      12.766   9.786  15.975  1.00  0.00     0.342 C 
ATOM     16  O   UNL     1      13.067   9.297  14.853  1.00  0.00    -0.246 OA
BRANCH  15  17
ATOM     17  C   UNL     1      13.391  11.046  16.426  1.00  0.00     0.107 A 
ATOM     18  C   UNL     1      12.845  12.327  16.094  1.00  0.00     0.000 A 
ATOM     19  C   UNL     1      14.561  10.962  17.213  1.00  0.00     0.134 A 
ATOM     20  C   UNL     1      13.591  13.486  16.450  1.00  0.00     0.087 A 
ATOM     21  C   UNL     1      15.215  12.120  17.617  1.00  0.00     0.094 A 
ATOM     22  Cl  UNL     1      13.182  15.103  15.874  1.00  0.00    -0.080 Cl
ATOM     23  C   UNL     1      14.750  13.373  17.229  1.00  0.00     0.138 A 
BRANCH  18  24
ATOM     24  C   UNL     1      11.595  12.427  15.213  1.00  0.00     0.118 CG0
ATOM     25  G   UNL     1      10.374  13.069  15.851  1.00  0.00     0.000 G0
ENDBRANCH  18  24
BRANCH  19  26
ATOM     26  O   UNL     1      15.096   9.736  17.620  1.00  0.00    -0.507 OA
ATOM     27  H   UNL     1      14.552   8.887  17.694  1.00  0.00     0.293 HD
ENDBRANCH  19  26
BRANCH  23  28
ATOM     28  O   UNL     1      15.450  14.519  17.605  1.00  0.00    -0.506 OA
ATOM     29  H   UNL     1      15.225  15.025  18.455  1.00  0.00     0.293 HD
ENDBRANCH  23  28
ENDBRANCH  15  17
ENDBRANCH  14  15
ENDBRANCH   2  14
TORSDOF 2
ENDMDL
MODEL 4
REMARK VINA RESULT:    -5.920      2.335      3.705
REMARK INTER + INTRA:         -10.239
REMARK INTER:                  -9.052
REMARK INTRA:                  -1.186
REMARK UNBOUND:                -0.858
REMARK SMILES C[C@@H]1C[C@H]2O[C@@H]2/C=C\C=C\C(=O)Cc2c(Cl)c(O)cc(O)c2C(=O)O1
REMARK SMILES IDX 1 1 2 2 3 3 4 4 5 5 6 6 7 7 8 8 9 9 10 10 11 11 12 12 25 14
REMARK SMILES IDX 23 15 24 16 22 17 14 18 20 19 15 20 19 21 16 22 17 23 13 24
REMARK SMILES IDX 21 26 18 28
REMARK H PARENT 21 27 18 29
REMARK Flexibility Score: 60.00
ROOT
ATOM      1  C   UNL     1      12.942   9.251  20.751  1.00  0.00     0.053 C 
ATOM      2  C   UNL     1      12.748   8.773  19.308  1.00  0.00     0.176 C 
ENDROOT
BRANCH   2   3
ATOM      3  C   UNL     1      13.896   9.290  18.386  1.00  0.00     0.080 C 
BRANCH   3   4
ATOM      4  C   UNL     1      14.226  10.745  18.720  1.00  0.00     0.155 C 
ATOM      5  O   UNL     1      15.126  11.183  17.718  1.00  0.00    -0.365 OA
ATOM      6  C   UNL     1      13.953  11.923  17.859  1.00  0.00     0.170 C 
BRANCH   6   7
ATOM      7  C   UNL     1      14.240  13.280  18.477  1.00  0.00     0.007 C 
ATOM      8  C   UNL     1      13.329  14.167  18.948  1.00  0.00    -0.001 C 
BRANCH   8   9
ATOM      9  C   UNL     1      11.859  14.018  18.839  1.00  0.00     0.003 C 
ATOM     10  C   UNL     1      11.249  12.901  19.234  1.00  0.00     0.047 C 
BRANCH  10  11
ATOM     11  C   UNL     1       9.836  12.587  18.920  1.00  0.00     0.160 CG0
ATOM     12  O   UNL     1       8.949  13.222  19.550  1.00  0.00    -0.294 OA
ATOM     13  G   UNL     1       9.391  11.475  17.985  1.00  0.00     0.000 G0
ENDBRANCH  10  11
ENDBRANCH   8   9
ENDBRANCH   6   7
ENDBRANCH   3   4
ENDBRANCH   2   3
BRANCH   2  14
ATOM     14  O   UNL     1      11.489   9.233  18.793  1.00  0.00    -0.459 OA
BRANCH  14  15
ATOM     15  C   UNL     1      10.963   8.982  17.526  1.00  0.00     0.342 C 
ATOM     16  O   UNL     1      10.563   7.831  17.202  1.00  0.00    -0.246 OA
BRANCH  15  17
ATOM     17  C   UNL     1      10.974  10.071  16.529  1.00  0.00     0.107 A 
ATOM     18  C   UNL     1      10.244  11.287  16.724  1.00  0.00     0.000 A 
ATOM     19  C   UNL     1      11.739   9.889  15.355  1.00  0.00     0.134 A 
ATOM     20  C   UNL     1      10.197  12.220  15.650  1.00  0.00     0.087 A 
ATOM     21  C   UNL     1      11.738  10.863  14.364  1.00  0.00     0.094 A 
ATOM     22  Cl  UNL     1       9.127  13.622  15.644  1.00  0.00    -0.080 Cl
ATOM     23  C   UNL     1      10.964  12.012  14.496  1.00  0.00     0.138 A 
BRANCH  18  24
ATOM     24  C   UNL     1       9.386  11.478  17.979  1.00  0.00     0.118 CG0
ATOM     25  G   UNL     1       9.830  12.573  18.935  1.00  0.00     0.000 G0
ENDBRANCH  18  24
BRANCH  19  26
ATOM     26  O   UNL     1      12.521   8.749  15.148  1.00  0.00    -0.507 OA
ATOM     27  H   UNL     1      12.151   7.874  14.799  1.00  0.00     0.293 HD
ENDBRANCH  19  26
BRANCH  23  28
ATOM     28  O   UNL     1      10.942  12.953  13.466  1.00  0.00    -0.506 OA
ATOM     29  H   UNL     1      10.442  12.783  12.601  1.00  0.00     0.293 HD
ENDBRANCH  23  28
ENDBRANCH  15  17
ENDBRANCH  14  15
ENDBRANCH   2  14
TORSDOF 2
ENDMDL
MODEL 5
REMARK VINA RESULT:    -5.891      2.217      4.864
REMARK INTER + INTRA:         -10.192
REMARK INTER:                  -8.940
REMARK INTRA:                  -1.252
REMARK UNBOUND:                -0.858
REMARK SMILES C[C@@H]1C[C@H]2O[C@@H]2/C=C\C=C\C(=O)Cc2c(Cl)c(O)cc(O)c2C(=O)O1
REMARK SMILES IDX 1 1 2 2 3 3 4 4 5 5 6 6 7 7 8 8 9 9 10 10 11 11 12 12 25 14
REMARK SMILES IDX 23 15 24 16 22 17 14 18 20 19 15 20 19 21 16 22 17 23 13 24
REMARK SMILES IDX 21 26 18 28
REMARK H PARENT 21 27 18 29
REMARK Flexibility Score: 60.00
ROOT
ATOM      1  C   UNL     1      15.906  12.007  17.981  1.00  0.00     0.053 C 
ATOM      2  C   UNL     1      15.002  11.461  19.092  1.00  0.00     0.176 C 
ENDROOT
BRANCH   2   3
ATOM      3  C   UNL     1      14.601   9.979  18.810  1.00  0.00     0.080 C 
BRANCH   3   4
ATOM      4  C   UNL     1      14.201   9.809  17.344  1.00  0.00     0.155 C 
ATOM      5  O   UNL     1      13.748   8.474  17.214  1.00  0.00    -0.365 OA
ATOM      6  C   UNL     1      12.845   9.469  16.843  1.00  0.00     0.170 C 
BRANCH   6   7
ATOM      7  C   UNL     1      12.667   9.503  15.335  1.00  0.00     0.007 C 
ATOM      8  C   UNL     1      12.135  10.512  14.603  1.00  0.00    -0.001 C 
BRANCH   8   9
ATOM      9  C   UNL     1      11.519  11.738  15.163  1.00  0.00     0.003 C 
ATOM     10  C   UNL     1      12.257  12.657  15.786  1.00  0.00     0.047 C 
BRANCH  10  11
ATOM     11  C   UNL     1      11.680  13.763  16.584  1.00  0.00     0.160 CG0
ATOM     12  O   UNL     1      11.635  14.901  16.046  1.00  0.00    -0.294 OA
ATOM     13  G   UNL     1      11.255  13.643  18.038  1.00  0.00     0.000 G0
ENDBRANCH  10  11
ENDBRANCH   8   9
ENDBRANCH   6   7
ENDBRANCH   3   4
ENDBRANCH   2   3
BRANCH   2  14
ATOM     14  O   UNL     1      13.812  12.255  19.203  1.00  0.00    -0.459 OA
BRANCH  14  15
ATOM     15  C   UNL     1      12.736  12.031  20.063  1.00  0.00     0.342 C 
ATOM     16  O   UNL     1      12.860  12.160  21.311  1.00  0.00    -0.246 OA
BRANCH  15  17
ATOM     17  C   UNL     1      11.466  11.542  19.491  1.00  0.00     0.107 A 
ATOM     18  C   UNL     1      10.737  12.287  18.509  1.00  0.00     0.000 A 
ATOM     19  C   UNL     1      10.976  10.294  19.935  1.00  0.00     0.134 A 
ATOM     20  C   UNL     1       9.455  11.807  18.120  1.00  0.00     0.087 A 
ATOM     21  C   UNL     1       9.758   9.815  19.465  1.00  0.00     0.094 A 
ATOM     22  Cl  UNL     1       8.336  12.751  17.135  1.00  0.00    -0.080 Cl
ATOM     23  C   UNL     1       8.992  10.567  18.579  1.00  0.00     0.138 A 
BRANCH  18  24
ATOM     24  C   UNL     1      11.246  13.656  18.046  1.00  0.00     0.118 CG0
ATOM     25  G   UNL     1      11.684  13.754  16.595  1.00  0.00     0.000 G0
ENDBRANCH  18  24
BRANCH  19  26
ATOM     26  O   UNL     1      11.683   9.497  20.841  1.00  0.00    -0.507 OA
ATOM     27  H   UNL     1      12.679   9.332  20.779  1.00  0.00     0.293 HD
ENDBRANCH  19  26
BRANCH  23  28
ATOM     28  O   UNL     1       7.751  10.088  18.158  1.00  0.00    -0.506 OA
ATOM     29  H   UNL     1       6.902  10.286  18.675  1.00  0.00     0.293 HD
ENDBRANCH  23  28
ENDBRANCH  15  17
ENDBRANCH  14  15
ENDBRANCH   2  14
TORSDOF 2
ENDMDL
MODEL 6
REMARK VINA RESULT:    -5.855      3.120      6.009
REMARK INTER + INTRA:         -10.136
REMARK INTER:                  -9.383
REMARK INTRA:                  -0.753
REMARK UNBOUND:                -0.858
REMARK SMILES C[C@@H]1C[C@H]2O[C@@H]2/C=C\C=C\C(=O)Cc2c(Cl)c(O)cc(O)c2C(=O)O1
REMARK SMILES IDX 1 1 2 2 3 3 4 4 5 5 6 6 7 7 8 8 9 9 10 10 11 11 12 12 25 14
REMARK SMILES IDX 23 15 24 16 22 17 14 18 20 19 15 20 19 21 16 22 17 23 13 24
REMARK SMILES IDX 21 26 18 28
REMARK H PARENT 21 27 18 29
REMARK Flexibility Score: 60.00
ROOT
ATOM      1  C   UNL     1      13.180   8.865  15.348  1.00  0.00     0.053 C 
ATOM      2  C   UNL     1      11.819   9.568  15.397  1.00  0.00     0.176 C 
ENDROOT
BRANCH   2   3
ATOM      3  C   UNL     1      11.888  10.972  14.719  1.00  0.00     0.080 C 
BRANCH   3   4
ATOM      4  C   UNL     1      12.758  11.918  15.549  1.00  0.00     0.155 C 
ATOM      5  O   UNL     1      13.135  12.968  14.677  1.00  0.00    -0.365 OA
ATOM      6  C   UNL     1      12.464  13.343  15.840  1.00  0.00     0.170 C 
BRANCH   6   7
ATOM      7  C   UNL     1      13.407  14.031  16.812  1.00  0.00     0.007 C 
ATOM      8  C   UNL     1      13.275  14.102  18.159  1.00  0.00    -0.001 C 
BRANCH   8   9
ATOM      9  C   UNL     1      12.108  13.609  18.928  1.00  0.00     0.003 C 
ATOM     10  C   UNL     1      11.889  12.304  19.088  1.00  0.00     0.047 C 
BRANCH  10  11
ATOM     11  C   UNL     1      10.622  11.747  19.615  1.00  0.00     0.160 CG0
ATOM     12  O   UNL     1       9.660  12.545  19.767  1.00  0.00    -0.294 OA
ATOM     13  G   UNL     1      10.448  10.317  20.095  1.00  0.00     0.000 G0
ENDBRANCH  10  11
ENDBRANCH   8   9
ENDBRANCH   6   7
ENDBRANCH   3   4
ENDBRANCH   2   3
BRANCH   2  14
ATOM     14  O   UNL     1      11.387   9.726  16.757  1.00  0.00    -0.459 OA
BRANCH  14  15
ATOM     15  C   UNL     1      11.188   8.712  17.693  1.00  0.00     0.342 C 
ATOM     16  O   UNL     1      10.252   7.877  17.563  1.00  0.00    -0.246 OA
BRANCH  15  17
ATOM     17  C   UNL     1      12.038   8.691  18.901  1.00  0.00     0.107 A 
ATOM     18  C   UNL     1      11.702   9.431  20.080  1.00  0.00     0.000 A 
ATOM     19  C   UNL     1      13.211   7.904  18.874  1.00  0.00     0.134 A 
ATOM     20  C   UNL     1      12.649   9.465  21.142  1.00  0.00     0.087 A 
ATOM     21  C   UNL     1      14.069   7.894  19.967  1.00  0.00     0.094 A 
ATOM     22  Cl  UNL     1      12.495  10.544  22.529  1.00  0.00    -0.080 Cl
ATOM     23  C   UNL     1      13.807   8.677  21.086  1.00  0.00     0.138 A 
BRANCH  18  24
ATOM     24  C   UNL     1      10.448  10.312  20.105  1.00  0.00     0.118 CG0
ATOM     25  G   UNL     1      10.624  11.744  19.630  1.00  0.00     0.000 G0
ENDBRANCH  18  24
BRANCH  19  26
ATOM     26  O   UNL     1      13.548   7.111  17.773  1.00  0.00    -0.507 OA
ATOM     27  H   UNL     1      12.986   6.333  17.453  1.00  0.00     0.293 HD
ENDBRANCH  19  26
BRANCH  23  28
ATOM     28  O   UNL     1      14.707   8.688  22.151  1.00  0.00    -0.506 OA
ATOM     29  H   UNL     1      15.133   9.547  22.479  1.00  0.00     0.293 HD
ENDBRANCH  23  28
ENDBRANCH  15  17
ENDBRANCH  14  15
ENDBRANCH   2  14
TORSDOF 2
ENDMDL
MODEL 7
REMARK VINA RESULT:    -5.841      2.488      4.160
REMARK INTER + INTRA:         -10.113
REMARK INTER:                  -9.195
REMARK INTRA:                  -0.918
REMARK UNBOUND:                -0.858
REMARK SMILES C[C@@H]1C[C@H]2O[C@@H]2/C=C\C=C\C(=O)Cc2c(Cl)c(O)cc(O)c2C(=O)O1
REMARK SMILES IDX 1 1 2 2 3 3 4 4 5 5 6 6 7 7 8 8 9 9 10 10 11 11 12 12 25 14
REMARK SMILES IDX 23 15 24 16 22 17 14 18 20 19 15 20 19 21 16 22 17 23 13 24
REMARK SMILES IDX 21 26 18 28
REMARK H PARENT 21 27 18 29
REMARK Flexibility Score: 60.00
ROOT
ATOM      1  C   UNL     1      14.330   7.893  19.707  1.00  0.00     0.053 C 
ATOM      2  C   UNL     1      12.817   8.092  19.858  1.00  0.00     0.176 C 
ENDROOT
BRANCH   2   3
ATOM      3  C   UNL     1      12.040   7.379  18.708  1.00  0.00     0.080 C 
BRANCH   3   4
ATOM      4  C   UNL     1      12.475   7.937  17.352  1.00  0.00     0.155 C 
ATOM      5  O   UNL     1      11.510   7.488  16.417  1.00  0.00    -0.365 OA
ATOM      6  C   UNL     1      11.692   8.868  16.500  1.00  0.00     0.170 C 
BRANCH   6   7
ATOM      7  C   UNL     1      12.403   9.395  15.266  1.00  0.00     0.007 C 
ATOM      8  C   UNL     1      12.951  10.625  15.108  1.00  0.00    -0.001 C 
BRANCH   8   9
ATOM      9  C   UNL     1      12.854  11.733  16.087  1.00  0.00     0.003 C 
ATOM     10  C   UNL     1      13.734  11.853  17.081  1.00  0.00     0.047 C 
BRANCH  10  11
ATOM     11  C   UNL     1      13.548  12.771  18.229  1.00  0.00     0.160 CG0
ATOM     12  O   UNL     1      14.434  13.646  18.417  1.00  0.00    -0.294 OA
ATOM     13  G   UNL     1      12.435  12.648  19.255  1.00  0.00     0.000 G0
ENDBRANCH  10  11
ENDBRANCH   8   9
ENDBRANCH   6   7
ENDBRANCH   3   4
ENDBRANCH   2   3
BRANCH   2  14
ATOM     14  O   UNL     1      12.493   9.490  19.846  1.00  0.00    -0.459 OA
BRANCH  14  15
ATOM     15  C   UNL     1      11.284  10.070  20.229  1.00  0.00     0.342 C 
ATOM     16  O   UNL     1      10.770   9.826  21.354  1.00  0.00    -0.246 OA
BRANCH  15  17
ATOM     17  C   UNL     1      10.560  10.903  19.248  1.00  0.00     0.107 A 
ATOM     18  C   UNL     1      11.095  12.136  18.756  1.00  0.00     0.000 A 
ATOM     19  C   UNL     1       9.304  10.447  18.789  1.00  0.00     0.134 A 
ATOM     20  C   UNL     1      10.267  12.941  17.923  1.00  0.00     0.087 A 
ATOM     21  C   UNL     1       8.561  11.221  17.906  1.00  0.00     0.094 A 
ATOM     22  Cl  UNL     1      10.683  14.594  17.468  1.00  0.00    -0.080 Cl
ATOM     23  C   UNL     1       9.024  12.465  17.486  1.00  0.00     0.138 A 
BRANCH  18  24
ATOM     24  C   UNL     1      12.441  12.653  19.274  1.00  0.00     0.118 CG0
ATOM     25  G   UNL     1      13.549  12.791  18.243  1.00  0.00     0.000 G0
ENDBRANCH  18  24
BRANCH  19  26
ATOM     26  O   UNL     1       8.769   9.218  19.187  1.00  0.00    -0.507 OA
ATOM     27  H   UNL     1       9.231   8.592  19.834  1.00  0.00     0.293 HD
ENDBRANCH  19  26
BRANCH  23  28
ATOM     28  O   UNL     1       8.239  13.246  16.637  1.00  0.00    -0.506 OA
ATOM     29  H   UNL     1       7.899  14.159  16.917  1.00  0.00     0.293 HD
ENDBRANCH  23  28
ENDBRANCH  15  17
ENDBRANCH  14  15
ENDBRANCH   2  14
TORSDOF 2
ENDMDL
MODEL 8
REMARK VINA RESULT:    -5.802      2.657      3.803
REMARK INTER + INTRA:         -10.052
REMARK INTER:                  -8.879
REMARK INTRA:                  -1.174
REMARK UNBOUND:                -0.858
REMARK SMILES C[C@@H]1C[C@H]2O[C@@H]2/C=C\C=C\C(=O)Cc2c(Cl)c(O)cc(O)c2C(=O)O1
REMARK SMILES IDX 1 1 2 2 3 3 4 4 5 5 6 6 7 7 8 8 9 9 10 10 11 11 12 12 25 14
REMARK SMILES IDX 23 15 24 16 22 17 14 18 20 19 15 20 19 21 16 22 17 23 13 24
REMARK SMILES IDX 21 26 18 28
REMARK H PARENT 21 27 18 29
REMARK Flexibility Score: 60.00
ROOT
ATOM      1  C   UNL     1      11.353   6.610  17.664  1.00  0.00     0.053 C 
ATOM      2  C   UNL     1      12.287   7.818  17.535  1.00  0.00     0.176 C 
ENDROOT
BRANCH   2   3
ATOM      3  C   UNL     1      13.614   7.589  18.324  1.00  0.00     0.080 C 
BRANCH   3   4
ATOM      4  C   UNL     1      13.410   7.912  19.805  1.00  0.00     0.155 C 
ATOM      5  O   UNL     1      14.327   7.097  20.512  1.00  0.00    -0.365 OA
ATOM      6  C   UNL     1      14.431   8.471  20.725  1.00  0.00     0.170 C 
BRANCH   6   7
ATOM      7  C   UNL     1      13.942   8.843  22.114  1.00  0.00     0.007 C 
ATOM      8  C   UNL     1      13.411  10.030  22.496  1.00  0.00    -0.001 C 
BRANCH   8   9
ATOM      9  C   UNL     1      13.315  11.236  21.641  1.00  0.00     0.003 C 
ATOM     10  C   UNL     1      12.365  11.348  20.713  1.00  0.00     0.047 C 
BRANCH  10  11
ATOM     11  C   UNL     1      12.367  12.394  19.665  1.00  0.00     0.160 CG0
ATOM     12  O   UNL     1      13.264  13.276  19.730  1.00  0.00    -0.294 OA
ATOM     13  G   UNL     1      11.295  12.542  18.598  1.00  0.00     0.000 G0
ENDBRANCH  10  11
ENDBRANCH   8   9
ENDBRANCH   6   7
ENDBRANCH   3   4
ENDBRANCH   2   3
BRANCH   2  14
ATOM     14  O   UNL     1      11.644   9.002  18.032  1.00  0.00    -0.459 OA
BRANCH  14  15
ATOM     15  C   UNL     1      10.834   9.878  17.310  1.00  0.00     0.342 C 
ATOM     16  O   UNL     1       9.589   9.697  17.227  1.00  0.00    -0.246 OA
BRANCH  15  17
ATOM     17  C   UNL     1      11.476  10.973  16.555  1.00  0.00     0.107 A 
ATOM     18  C   UNL     1      11.724  12.255  17.141  1.00  0.00     0.000 A 
ATOM     19  C   UNL     1      11.853  10.724  15.217  1.00  0.00     0.134 A 
ATOM     20  C   UNL     1      12.216  13.293  16.299  1.00  0.00     0.087 A 
ATOM     21  C   UNL     1      12.413  11.740  14.451  1.00  0.00     0.094 A 
ATOM     22  Cl  UNL     1      12.312  14.978  16.811  1.00  0.00    -0.080 Cl
ATOM     23  C   UNL     1      12.580  13.018  14.974  1.00  0.00     0.138 A 
BRANCH  18  24
ATOM     24  C   UNL     1      11.288  12.542  18.582  1.00  0.00     0.118 CG0
ATOM     25  G   UNL     1      12.361  12.405  19.648  1.00  0.00     0.000 G0
ENDBRANCH  18  24
BRANCH  19  26
ATOM     26  O   UNL     1      11.694   9.470  14.621  1.00  0.00    -0.507 OA
ATOM     27  H   UNL     1      11.418   8.641  15.131  1.00  0.00     0.293 HD
ENDBRANCH  19  26
BRANCH  23  28
ATOM     28  O   UNL     1      13.098  14.034  14.170  1.00  0.00    -0.506 OA
ATOM     29  H   UNL     1      12.970  15.012  14.401  1.00  0.00     0.293 HD
ENDBRANCH  23  28
ENDBRANCH  15  17
ENDBRANCH  14  15
ENDBRANCH   2  14
TORSDOF 2
ENDMDL
MODEL 9
REMARK VINA RESULT:    -5.781      3.272      6.438
REMARK INTER + INTRA:         -10.018
REMARK INTER:                  -9.226
REMARK INTRA:                  -0.792
REMARK UNBOUND:                -0.858
REMARK SMILES C[C@@H]1C[C@H]2O[C@@H]2/C=C\C=C\C(=O)Cc2c(Cl)c(O)cc(O)c2C(=O)O1
REMARK SMILES IDX 1 1 2 2 3 3 4 4 5 5 6 6 7 7 8 8 9 9 10 10 11 11 12 12 25 14
REMARK SMILES IDX 23 15 24 16 22 17 14 18 20 19 15 20 19 21 16 22 17 23 13 24
REMARK SMILES IDX 21 26 18 28
REMARK H PARENT 21 27 18 29
REMARK Flexibility Score: 60.00
ROOT
ATOM      1  C   UNL     1      11.651  10.324  14.991  1.00  0.00     0.053 C 
ATOM      2  C   UNL     1      12.150   9.535  16.206  1.00  0.00     0.176 C 
ENDROOT
BRANCH   2   3
ATOM      3  C   UNL     1      10.972   8.804  16.923  1.00  0.00     0.080 C 
BRANCH   3   4
ATOM      4  C   UNL     1       9.952   9.822  17.434  1.00  0.00     0.155 C 
ATOM      5  O   UNL     1       8.743   9.107  17.613  1.00  0.00    -0.365 OA
ATOM      6  C   UNL     1       9.240   9.767  18.736  1.00  0.00     0.170 C 
BRANCH   6   7
ATOM      7  C   UNL     1       8.386  10.974  19.078  1.00  0.00     0.007 C 
ATOM      8  C   UNL     1       8.786  12.268  19.114  1.00  0.00    -0.001 C 
BRANCH   8   9
ATOM      9  C   UNL     1      10.182  12.734  18.933  1.00  0.00     0.003 C 
ATOM     10  C   UNL     1      11.155  12.325  19.747  1.00  0.00     0.047 C 
BRANCH  10  11
ATOM     11  C   UNL     1      12.501  12.942  19.783  1.00  0.00     0.160 CG0
ATOM     12  O   UNL     1      12.590  14.154  19.451  1.00  0.00    -0.294 OA
ATOM     13  G   UNL     1      13.785  12.184  20.074  1.00  0.00     0.000 G0
ENDBRANCH  10  11
ENDBRANCH   8   9
ENDBRANCH   6   7
ENDBRANCH   3   4
ENDBRANCH   2   3
BRANCH   2  14
ATOM     14  O   UNL     1      12.795  10.413  17.141  1.00  0.00    -0.459 OA
BRANCH  14  15
ATOM     15  C   UNL     1      13.930  10.134  17.902  1.00  0.00     0.342 C 
ATOM     16  O   UNL     1      15.080  10.137  17.384  1.00  0.00    -0.246 OA
BRANCH  15  17
ATOM     17  C   UNL     1      13.753   9.734  19.312  1.00  0.00     0.107 A 
ATOM     18  C   UNL     1      13.662  10.695  20.369  1.00  0.00     0.000 A 
ATOM     19  C   UNL     1      13.667   8.355  19.605  1.00  0.00     0.134 A 
ATOM     20  C   UNL     1      13.636  10.217  21.710  1.00  0.00     0.087 A 
ATOM     21  C   UNL     1      13.553   7.927  20.923  1.00  0.00     0.094 A 
ATOM     22  Cl  UNL     1      13.797  11.277  23.110  1.00  0.00    -0.080 Cl
ATOM     23  C   UNL     1      13.554   8.842  21.971  1.00  0.00     0.138 A 
BRANCH  18  24
ATOM     24  C   UNL     1      13.787  12.192  20.063  1.00  0.00     0.118 CG0
ATOM     25  G   UNL     1      12.489  12.930  19.783  1.00  0.00     0.000 G0
ENDBRANCH  18  24
BRANCH  19  26
ATOM     26  O   UNL     1      13.683   7.380  18.603  1.00  0.00    -0.507 OA
ATOM     27  H   UNL     1      12.937   7.260  17.930  1.00  0.00     0.293 HD
ENDBRANCH  19  26
BRANCH  23  28
ATOM     28  O   UNL     1      13.487   8.387  23.288  1.00  0.00    -0.506 OA
ATOM     29  H   UNL     1      12.631   8.009  23.677  1.00  0.00     0.293 HD
ENDBRANCH  23  28
ENDBRANCH  15  17
ENDBRANCH  14  15
ENDBRANCH   2  14
TORSDOF 2
ENDMDL
MODEL 10
REMARK VINA RESULT:    -5.755      2.215      5.253
REMARK INTER + INTRA:          -9.977
REMARK INTER:                  -9.145
REMARK INTRA:                  -0.833
REMARK UNBOUND:                -0.858
REMARK SMILES C[C@@H]1C[C@H]2O[C@@H]2/C=C\C=C\C(=O)Cc2c(Cl)c(O)cc(O)c2C(=O)O1
REMARK SMILES IDX 1 1 2 2 3 3 4 4 5 5 6 6 7 7 8 8 9 9 10 10 11 11 12 12 25 14
REMARK SMILES IDX 23 15 24 16 22 17 14 18 20 19 15 20 19 21 16 22 17 23 13 24
REMARK SMILES IDX 21 26 18 28
REMARK H PARENT 21 27 18 29
REMARK Flexibility Score: 60.00
ROOT
ATOM      1  C   UNL     1      10.024  13.612  19.150  1.00  0.00     0.053 C 
ATOM      2  C   UNL     1       9.357  12.838  18.008  1.00  0.00     0.176 C 
ENDROOT
BRANCH   2   3
ATOM      3  C   UNL     1       8.161  13.642  17.409  1.00  0.00     0.080 C 
BRANCH   3   4
ATOM      4  C   UNL     1       8.371  13.861  15.910  1.00  0.00     0.155 C 
ATOM      5  O   UNL     1       7.837  15.141  15.623  1.00  0.00    -0.365 OA
ATOM      6  C   UNL     1       9.176  14.944  15.291  1.00  0.00     0.170 C 
BRANCH   6   7
ATOM      7  C   UNL     1       9.354  14.862  13.785  1.00  0.00     0.007 C 
ATOM      8  C   UNL     1      10.204  14.050  13.111  1.00  0.00    -0.001 C 
BRANCH   8   9
ATOM      9  C   UNL     1      11.211  13.162  13.737  1.00  0.00     0.003 C 
ATOM     10  C   UNL     1      10.850  12.030  14.342  1.00  0.00     0.047 C 
BRANCH  10  11
ATOM     11  C   UNL     1      11.760  11.238  15.201  1.00  0.00     0.160 CG0
ATOM     12  O   UNL     1      12.961  11.611  15.268  1.00  0.00    -0.294 OA
ATOM     13  G   UNL     1      11.371   9.947  15.901  1.00  0.00     0.000 G0
ENDBRANCH  10  11
ENDBRANCH   8   9
ENDBRANCH   6   7
ENDBRANCH   3   4
ENDBRANCH   2   3
BRANCH   2  14
ATOM     14  O   UNL     1       8.879  11.568  18.477  1.00  0.00    -0.459 OA
BRANCH  14  15
ATOM     15  C   UNL     1       9.354  10.309  18.108  1.00  0.00     0.342 C 
ATOM     16  O   UNL     1       8.588   9.444  17.605  1.00  0.00    -0.246 OA
BRANCH  15  17
ATOM     17  C   UNL     1      10.759   9.969  18.412  1.00  0.00     0.107 A 
ATOM     18  C   UNL     1      11.740   9.802  17.383  1.00  0.00     0.000 A 
ATOM     19  C   UNL     1      11.126   9.814  19.767  1.00  0.00     0.134 A 
ATOM     20  C   UNL     1      13.032   9.336  17.759  1.00  0.00     0.087 A 
ATOM     21  C   UNL     1      12.423   9.443  20.101  1.00  0.00     0.094 A 
ATOM     22  Cl  UNL     1      14.246   8.829  16.584  1.00  0.00    -0.080 Cl
ATOM     23  C   UNL     1      13.368   9.188  19.111  1.00  0.00     0.138 A 
BRANCH  18  24
ATOM     24  C   UNL     1      11.342   9.937  15.910  1.00  0.00     0.118 CG0
ATOM     25  G   UNL     1      11.766  11.220  15.215  1.00  0.00     0.000 G0
ENDBRANCH  18  24
BRANCH  19  26
ATOM     26  O   UNL     1      10.222  10.032  20.811  1.00  0.00    -0.507 OA
ATOM     27  H   UNL     1       9.257  10.301  20.667  1.00  0.00     0.293 HD
ENDBRANCH  19  26
BRANCH  23  28
ATOM     28  O   UNL     1      14.649   8.770  19.468  1.00  0.00    -0.506 OA
ATOM     29  H   UNL     1      15.465   9.034  18.927  1.00  0.00     0.293 HD
ENDBRANCH  23  28
ENDBRANCH  15  17
ENDBRANCH  14  15
ENDBRANCH   2  14
TORSDOF 2
ENDMDL
MODEL 11
REMARK VINA RESULT:    -5.619      3.732      5.770
REMARK INTER + INTRA:          -9.762
REMARK INTER:                  -9.002
REMARK INTRA:                  -0.760
REMARK UNBOUND:                -0.858
REMARK SMILES C[C@@H]1C[C@H]2O[C@@H]2/C=C\C=C\C(=O)Cc2c(Cl)c(O)cc(O)c2C(=O)O1
REMARK SMILES IDX 1 1 2 2 3 3 4 4 5 5 6 6 7 7 8 8 9 9 10 10 11 11 12 12 25 14
REMARK SMILES IDX 23 15 24 16 22 17 14 18 20 19 15 20 19 21 16 22 17 23 13 24
REMARK SMILES IDX 21 26 18 28
REMARK H PARENT 21 27 18 29
REMARK Flexibility Score: 60.00
ROOT
ATOM      1  C   UNL     1      16.704  13.813  20.076  1.00  0.00     0.053 C 
ATOM      2  C   UNL     1      17.055  12.821  18.962  1.00  0.00     0.176 C 
ENDROOT
BRANCH   2   3
ATOM      3  C   UNL     1      18.337  13.270  18.193  1.00  0.00     0.080 C 
BRANCH   3   4
ATOM      4  C   UNL     1      18.162  14.693  17.660  1.00  0.00     0.155 C 
ATOM      5  O   UNL     1      19.319  14.968  16.892  1.00  0.00    -0.365 OA
ATOM      6  C   UNL     1      18.098  15.088  16.231  1.00  0.00     0.170 C 
BRANCH   6   7
ATOM      7  C   UNL     1      17.770  16.545  15.958  1.00  0.00     0.007 C 
ATOM      8  C   UNL     1      16.605  17.038  15.473  1.00  0.00    -0.001 C 
BRANCH   8   9
ATOM      9  C   UNL     1      15.461  16.219  15.007  1.00  0.00     0.003 C 
ATOM     10  C   UNL     1      14.627  15.644  15.874  1.00  0.00     0.047 C 
BRANCH  10  11
ATOM     11  C   UNL     1      13.632  14.616  15.491  1.00  0.00     0.160 CG0
ATOM     12  O   UNL     1      13.291  14.565  14.280  1.00  0.00    -0.294 OA
ATOM     13  G   UNL     1      12.914  13.708  16.475  1.00  0.00     0.000 G0
ENDBRANCH  10  11
ENDBRANCH   8   9
ENDBRANCH   6   7
ENDBRANCH   3   4
ENDBRANCH   2   3
BRANCH   2  14
ATOM     14  O   UNL     1      15.967  12.708  18.032  1.00  0.00    -0.459 OA
BRANCH  14  15
ATOM     15  C   UNL     1      14.706  12.169  18.284  1.00  0.00     0.342 C 
ATOM     16  O   UNL     1      14.210  12.183  19.443  1.00  0.00    -0.246 OA
BRANCH  15  17
ATOM     17  C   UNL     1      13.997  11.487  17.183  1.00  0.00     0.107 A 
ATOM     18  C   UNL     1      13.139  12.192  16.279  1.00  0.00     0.000 A 
ATOM     19  C   UNL     1      14.190  10.096  17.030  1.00  0.00     0.134 A 
ATOM     20  C   UNL     1      12.388  11.433  15.339  1.00  0.00     0.087 A 
ATOM     21  C   UNL     1      13.504   9.401  16.041  1.00  0.00     0.094 A 
ATOM     22  Cl  UNL     1      11.100  12.129  14.355  1.00  0.00    -0.080 Cl
ATOM     23  C   UNL     1      12.597  10.053  15.211  1.00  0.00     0.138 A 
BRANCH  18  24
ATOM     24  C   UNL     1      12.899  13.695  16.459  1.00  0.00     0.118 CG0
ATOM     25  G   UNL     1      13.632  14.611  15.494  1.00  0.00     0.000 G0
ENDBRANCH  18  24
BRANCH  19  26
ATOM     26  O   UNL     1      15.069   9.374  17.843  1.00  0.00    -0.507 OA
ATOM     27  H   UNL     1      15.658   9.802  18.546  1.00  0.00     0.293 HD
ENDBRANCH  19  26
BRANCH  23  28
ATOM     28  O   UNL     1      11.884   9.326  14.258  1.00  0.00    -0.506 OA
ATOM     29  H   UNL     1      12.077   9.416  13.267  1.00  0.00     0.293 HD
ENDBRANCH  23  28
ENDBRANCH  15  17
ENDBRANCH  14  15
ENDBRANCH   2  14
TORSDOF 2
ENDMDL
MODEL 12
REMARK VINA RESULT:    -5.605      2.999      6.375
REMARK INTER + INTRA:          -9.739
REMARK INTER:                  -9.216
REMARK INTRA:                  -0.523
REMARK UNBOUND:                -0.858
REMARK SMILES C[C@@H]1C[C@H]2O[C@@H]2/C=C\C=C\C(=O)Cc2c(Cl)c(O)cc(O)c2C(=O)O1
REMARK SMILES IDX 1 1 2 2 3 3 4 4 5 5 6 6 7 7 8 8 9 9 10 10 11 11 12 12 25 14
REMARK SMILES IDX 23 15 24 16 22 17 14 18 20 19 15 20 19 21 16 22 17 23 13 24
REMARK SMILES IDX 21 26 18 28
REMARK H PARENT 21 27 18 29
REMARK Flexibility Score: 60.00
ROOT
ATOM      1  C   UNL     1      14.272  12.264  17.257  1.00  0.00     0.053 C 
ATOM      2  C   UNL     1      13.186  11.841  16.262  1.00  0.00     0.176 C 
ENDROOT
BRANCH   2   3
ATOM      3  C   UNL     1      12.749  13.041  15.365  1.00  0.00     0.080 C 
BRANCH   3   4
ATOM      4  C   UNL     1      11.400  13.589  15.835  1.00  0.00     0.155 C 
ATOM      5  O   UNL     1      10.947  14.448  14.805  1.00  0.00    -0.365 OA
ATOM      6  C   UNL     1      10.096  13.399  15.152  1.00  0.00     0.170 C 
BRANCH   6   7
ATOM      7  C   UNL     1       8.876  13.915  15.895  1.00  0.00     0.007 C 
ATOM      8  C   UNL     1       8.361  13.425  17.049  1.00  0.00    -0.001 C 
BRANCH   8   9
ATOM      9  C   UNL     1       8.838  12.207  17.745  1.00  0.00     0.003 C 
ATOM     10  C   UNL     1       9.244  12.254  19.014  1.00  0.00     0.047 C 
BRANCH  10  11
ATOM     11  C   UNL     1       9.965  11.145  19.681  1.00  0.00     0.160 CG0
ATOM     12  O   UNL     1       9.268  10.227  20.189  1.00  0.00    -0.294 OA
ATOM     13  G   UNL     1      11.468  11.106  19.897  1.00  0.00     0.000 G0
ENDBRANCH  10  11
ENDBRANCH   8   9
ENDBRANCH   6   7
ENDBRANCH   3   4
ENDBRANCH   2   3
BRANCH   2  14
ATOM     14  O   UNL     1      12.038  11.336  16.960  1.00  0.00    -0.459 OA
BRANCH  14  15
ATOM     15  C   UNL     1      11.692   9.996  17.138  1.00  0.00     0.342 C 
ATOM     16  O   UNL     1      10.846   9.435  16.391  1.00  0.00    -0.246 OA
BRANCH  15  17
ATOM     17  C   UNL     1      12.264   9.267  18.288  1.00  0.00     0.107 A 
ATOM     18  C   UNL     1      12.162   9.761  19.628  1.00  0.00     0.000 A 
ATOM     19  C   UNL     1      12.924   8.044  18.037  1.00  0.00     0.134 A 
ATOM     20  C   UNL     1      12.864   9.067  20.653  1.00  0.00     0.087 A 
ATOM     21  C   UNL     1      13.524   7.348  19.080  1.00  0.00     0.094 A 
ATOM     22  Cl  UNL     1      13.052   9.705  22.287  1.00  0.00    -0.080 Cl
ATOM     23  C   UNL     1      13.513   7.857  20.375  1.00  0.00     0.138 A 
BRANCH  18  24
ATOM     24  C   UNL     1      11.476  11.104  19.905  1.00  0.00     0.118 CG0
ATOM     25  G   UNL     1       9.974  11.148  19.684  1.00  0.00     0.000 G0
ENDBRANCH  18  24
BRANCH  19  26
ATOM     26  O   UNL     1      12.992   7.486  16.757  1.00  0.00    -0.507 OA
ATOM     27  H   UNL     1      12.432   7.807  15.978  1.00  0.00     0.293 HD
ENDBRANCH  19  26
BRANCH  23  28
ATOM     28  O   UNL     1      14.164   7.165  21.396  1.00  0.00    -0.506 OA
ATOM     29  H   UNL     1      13.648   6.674  22.119  1.00  0.00     0.293 HD
ENDBRANCH  23  28
ENDBRANCH  15  17
ENDBRANCH  14  15
ENDBRANCH   2  14
TORSDOF 2
ENDMDL
MODEL 13
REMARK VINA RESULT:    -5.574      2.846      3.848
REMARK INTER + INTRA:          -9.691
REMARK INTER:                  -8.847
REMARK INTRA:                  -0.844
REMARK UNBOUND:                -0.858
REMARK SMILES C[C@@H]1C[C@H]2O[C@@H]2/C=C\C=C\C(=O)Cc2c(Cl)c(O)cc(O)c2C(=O)O1
REMARK SMILES IDX 1 1 2 2 3 3 4 4 5 5 6 6 7 7 8 8 9 9 10 10 11 11 12 12 25 14
REMARK SMILES IDX 23 15 24 16 22 17 14 18 20 19 15 20 19 21 16 22 17 23 13 24
REMARK SMILES IDX 21 26 18 28
REMARK H PARENT 21 27 18 29
REMARK Flexibility Score: 60.00
ROOT
ATOM      1  C   UNL     1      11.490   7.098  17.986  1.00  0.00     0.053 C 
ATOM      2  C   UNL     1      12.777   7.930  17.981  1.00  0.00     0.176 C 
ENDROOT
BRANCH   2   3
ATOM      3  C   UNL     1      13.664   7.599  19.222  1.00  0.00     0.080 C 
BRANCH   3   4
ATOM      4  C   UNL     1      13.310   8.525  20.387  1.00  0.00     0.155 C 
ATOM      5  O   UNL     1      13.186   7.692  21.525  1.00  0.00    -0.365 OA
ATOM      6  C   UNL     1      14.115   8.727  21.617  1.00  0.00     0.170 C 
BRANCH   6   7
ATOM      7  C   UNL     1      13.626   9.811  22.561  1.00  0.00     0.007 C 
ATOM      8  C   UNL     1      13.545  11.139  22.300  1.00  0.00    -0.001 C 
BRANCH   8   9
ATOM      9  C   UNL     1      14.035  11.796  21.065  1.00  0.00     0.003 C 
ATOM     10  C   UNL     1      13.186  12.319  20.181  1.00  0.00     0.047 C 
BRANCH  10  11
ATOM     11  C   UNL     1      13.588  12.754  18.823  1.00  0.00     0.160 CG0
ATOM     12  O   UNL     1      14.744  13.235  18.688  1.00  0.00    -0.294 OA
ATOM     13  G   UNL     1      12.662  12.770  17.618  1.00  0.00     0.000 G0
ENDBRANCH  10  11
ENDBRANCH   8   9
ENDBRANCH   6   7
ENDBRANCH   3   4
ENDBRANCH   2   3
BRANCH   2  14
ATOM     14  O   UNL     1      12.467   9.331  17.988  1.00  0.00    -0.459 OA
BRANCH  14  15
ATOM     15  C   UNL     1      11.633  10.006  17.096  1.00  0.00     0.342 C 
ATOM     16  O   UNL     1      11.693   9.790  15.856  1.00  0.00    -0.246 OA
BRANCH  15  17
ATOM     17  C   UNL     1      10.740  11.058  17.624  1.00  0.00     0.107 A 
ATOM     18  C   UNL     1      11.197  12.393  17.862  1.00  0.00     0.000 A 
ATOM     19  C   UNL     1       9.396  10.715  17.890  1.00  0.00     0.134 A 
ATOM     20  C   UNL     1      10.308  13.301  18.503  1.00  0.00     0.087 A 
ATOM     21  C   UNL     1       8.532  11.656  18.436  1.00  0.00     0.094 A 
ATOM     22  Cl  UNL     1      10.818  14.881  19.101  1.00  0.00    -0.080 Cl
ATOM     23  C   UNL     1       8.980  12.933  18.758  1.00  0.00     0.138 A 
BRANCH  18  24
ATOM     24  C   UNL     1      12.662  12.764  17.607  1.00  0.00     0.118 CG0
ATOM     25  G   UNL     1      13.576  12.762  18.820  1.00  0.00     0.000 G0
ENDBRANCH  18  24
BRANCH  19  26
ATOM     26  O   UNL     1       8.884   9.444  17.611  1.00  0.00    -0.507 OA
ATOM     27  H   UNL     1       9.310   8.587  17.940  1.00  0.00     0.293 HD
ENDBRANCH  19  26
BRANCH  23  28
ATOM     28  O   UNL     1       8.107  13.845  19.351  1.00  0.00    -0.506 OA
ATOM     29  H   UNL     1       8.322  14.835  19.396  1.00  0.00     0.293 HD
ENDBRANCH  23  28
ENDBRANCH  15  17
ENDBRANCH  14  15
ENDBRANCH   2  14
TORSDOF 2
ENDMDL
MODEL 14
REMARK VINA RESULT:    -5.518      2.647      4.284
REMARK INTER + INTRA:          -9.601
REMARK INTER:                  -8.885
REMARK INTRA:                  -0.716
REMARK UNBOUND:                -0.858
REMARK SMILES C[C@@H]1C[C@H]2O[C@@H]2/C=C\C=C\C(=O)Cc2c(Cl)c(O)cc(O)c2C(=O)O1
REMARK SMILES IDX 1 1 2 2 3 3 4 4 5 5 6 6 7 7 8 8 9 9 10 10 11 11 12 12 25 14
REMARK SMILES IDX 23 15 24 16 22 17 14 18 20 19 15 20 19 21 16 22 17 23 13 24
REMARK SMILES IDX 21 26 18 28
REMARK H PARENT 21 27 18 29
REMARK Flexibility Score: 60.00
ROOT
ATOM      1  C   UNL     1      13.964   8.683  15.729  1.00  0.00     0.053 C 
ATOM      2  C   UNL     1      13.887   9.661  16.906  1.00  0.00     0.176 C 
ENDROOT
BRANCH   2   3
ATOM      3  C   UNL     1      13.516   8.921  18.229  1.00  0.00     0.080 C 
BRANCH   3   4
ATOM      4  C   UNL     1      13.468   9.911  19.393  1.00  0.00     0.155 C 
ATOM      5  O   UNL     1      14.174   9.298  20.456  1.00  0.00    -0.365 OA
ATOM      6  C   UNL     1      14.639  10.547  20.046  1.00  0.00     0.170 C 
BRANCH   6   7
ATOM      7  C   UNL     1      14.324  11.610  21.085  1.00  0.00     0.007 C 
ATOM      8  C   UNL     1      13.790  12.834  20.857  1.00  0.00    -0.001 C 
BRANCH   8   9
ATOM      9  C   UNL     1      13.516  13.409  19.520  1.00  0.00     0.003 C 
ATOM     10  C   UNL     1      12.267  13.556  19.076  1.00  0.00     0.047 C 
BRANCH  10  11
ATOM     11  C   UNL     1      11.934  13.878  17.669  1.00  0.00     0.160 CG0
ATOM     12  O   UNL     1      12.619  14.770  17.103  1.00  0.00    -0.294 OA
ATOM     13  G   UNL     1      10.753  13.294  16.912  1.00  0.00     0.000 G0
ENDBRANCH  10  11
ENDBRANCH   8   9
ENDBRANCH   6   7
ENDBRANCH   3   4
ENDBRANCH   2   3
BRANCH   2  14
ATOM     14  O   UNL     1      12.907  10.678  16.648  1.00  0.00    -0.459 OA
BRANCH  14  15
ATOM     15  C   UNL     1      11.588  10.482  16.240  1.00  0.00     0.342 C 
ATOM     16  O   UNL     1      11.312  10.181  15.047  1.00  0.00    -0.246 OA
BRANCH  15  17
ATOM     17  C   UNL     1      10.504  10.732  17.211  1.00  0.00     0.107 A 
ATOM     18  C   UNL     1      10.069  12.056  17.540  1.00  0.00     0.000 A 
ATOM     19  C   UNL     1       9.888   9.617  17.820  1.00  0.00     0.134 A 
ATOM     20  C   UNL     1       9.119  12.208  18.590  1.00  0.00     0.087 A 
ATOM     21  C   UNL     1       8.900   9.803  18.779  1.00  0.00     0.094 A 
ATOM     22  Cl  UNL     1       8.697  13.774  19.282  1.00  0.00    -0.080 Cl
ATOM     23  C   UNL     1       8.526  11.083  19.178  1.00  0.00     0.138 A 
BRANCH  18  24
ATOM     24  C   UNL     1      10.755  13.272  16.909  1.00  0.00     0.118 CG0
ATOM     25  G   UNL     1      11.926  13.857  17.679  1.00  0.00     0.000 G0
ENDBRANCH  18  24
BRANCH  19  26
ATOM     26  O   UNL     1      10.230   8.304  17.483  1.00  0.00    -0.507 OA
ATOM     27  H   UNL     1      10.893   8.069  16.756  1.00  0.00     0.293 HD
ENDBRANCH  19  26
BRANCH  23  28
ATOM     28  O   UNL     1       7.567  11.244  20.177  1.00  0.00    -0.506 OA
ATOM     29  H   UNL     1       7.271  12.163  20.487  1.00  0.00     0.293 HD
ENDBRANCH  23  28
ENDBRANCH  15  17
ENDBRANCH  14  15
ENDBRANCH   2  14
TORSDOF 2
ENDMDL
MODEL 15
REMARK VINA RESULT:    -5.474      2.335      3.076
REMARK INTER + INTRA:          -9.532
REMARK INTER:                  -8.629
REMARK INTRA:                  -0.903
REMARK UNBOUND:                -0.858
REMARK SMILES C[C@@H]1C[C@H]2O[C@@H]2/C=C\C=C\C(=O)Cc2c(Cl)c(O)cc(O)c2C(=O)O1
REMARK SMILES IDX 1 1 2 2 3 3 4 4 5 5 6 6 7 7 8 8 9 9 10 10 11 11 12 12 25 14
REMARK SMILES IDX 23 15 24 16 22 17 14 18 20 19 15 20 19 21 16 22 17 23 13 24
REMARK SMILES IDX 21 26 18 28
REMARK H PARENT 21 27 18 29
REMARK Flexibility Score: 60.00
ROOT
ATOM      1  C   UNL     1       8.859  10.595  19.699  1.00  0.00     0.053 C 
ATOM      2  C   UNL     1      10.300  10.922  19.292  1.00  0.00     0.176 C 
ENDROOT
BRANCH   2   3
ATOM      3  C   UNL     1      11.322  10.082  20.122  1.00  0.00     0.080 C 
BRANCH   3   4
ATOM      4  C   UNL     1      12.425   9.542  19.211  1.00  0.00     0.155 C 
ATOM      5  O   UNL     1      12.687   8.223  19.654  1.00  0.00    -0.365 OA
ATOM      6  C   UNL     1      12.319   8.362  18.316  1.00  0.00     0.170 C 
BRANCH   6   7
ATOM      7  C   UNL     1      13.504   8.114  17.400  1.00  0.00     0.007 C 
ATOM      8  C   UNL     1      13.720   8.673  16.184  1.00  0.00    -0.001 C 
BRANCH   8   9
ATOM      9  C   UNL     1      12.768   9.555  15.469  1.00  0.00     0.003 C 
ATOM     10  C   UNL     1      12.800  10.878  15.631  1.00  0.00     0.047 C 
BRANCH  10  11
ATOM     11  C   UNL     1      11.729  11.784  15.157  1.00  0.00     0.160 CG0
ATOM     12  O   UNL     1      10.966  11.353  14.252  1.00  0.00    -0.294 OA
ATOM     13  G   UNL     1      11.569  13.229  15.599  1.00  0.00     0.000 G0
ENDBRANCH  10  11
ENDBRANCH   8   9
ENDBRANCH   6   7
ENDBRANCH   3   4
ENDBRANCH   2   3
BRANCH   2  14
ATOM     14  O   UNL     1      10.572  12.317  19.489  1.00  0.00    -0.459 OA
BRANCH  14  15
ATOM     15  C   UNL     1      10.953  13.240  18.514  1.00  0.00     0.342 C 
ATOM     16  O   UNL     1      12.103  13.755  18.517  1.00  0.00    -0.246 OA
BRANCH  15  17
ATOM     17  C   UNL     1       9.945  13.680  17.528  1.00  0.00     0.107 A 
ATOM     18  C   UNL     1      10.206  13.675  16.120  1.00  0.00     0.000 A 
ATOM     19  C   UNL     1       8.689  14.110  18.010  1.00  0.00     0.134 A 
ATOM     20  C   UNL     1       9.232  14.250  15.256  1.00  0.00     0.087 A 
ATOM     21  C   UNL     1       7.728  14.584  17.125  1.00  0.00     0.094 A 
ATOM     22  Cl  UNL     1       9.530  14.558  13.545  1.00  0.00    -0.080 Cl
ATOM     23  C   UNL     1       7.995  14.671  15.762  1.00  0.00     0.138 A 
BRANCH  18  24
ATOM     24  C   UNL     1      11.578  13.241  15.592  1.00  0.00     0.118 CG0
ATOM     25  G   UNL     1      11.704  11.787  15.170  1.00  0.00     0.000 G0
ENDBRANCH  18  24
BRANCH  19  26
ATOM     26  O   UNL     1       8.361  14.071  19.368  1.00  0.00    -0.507 OA
ATOM     27  H   UNL     1       8.984  14.385  20.102  1.00  0.00     0.293 HD
ENDBRANCH  19  26
BRANCH  23  28
ATOM     28  O   UNL     1       7.032  15.195  14.900  1.00  0.00    -0.506 OA
ATOM     29  H   UNL     1       6.055  14.936  14.974  1.00  0.00     0.293 HD
ENDBRANCH  23  28
ENDBRANCH  15  17
ENDBRANCH  14  15
ENDBRANCH   2  14
TORSDOF 2
ENDMDL
