MODEL 1
REMARK VINA RESULT:    -5.301      0.000      0.000
REMARK INTER + INTRA:          -8.456
REMARK INTER:                  -7.470
REMARK INTRA:                  -0.986
REMARK UNBOUND:                -0.986
REMARK SMILES O=C(O)CC(O)(CC(=O)O)C(=O)O
REMARK SMILES IDX 5 1 4 2 2 3 1 4 3 5 6 7 7 9 8 10 9 11 10 12 11 14 12 15
REMARK SMILES IDX 13 16
REMARK H PARENT 3 6 6 8 10 13 13 17
REMARK Flexibility Score: inf
ROOT
ATOM      1  C   UNL     1      11.657   8.686  18.375  1.00  0.00     0.182 C 
ENDROOT
BRANCH   1   2
ATOM      2  C   UNL     1      12.206   9.556  17.208  1.00  0.00     0.170 C 
BRANCH   2   3
ATOM      3  C   UNL     1      12.840   8.725  16.130  1.00  0.00     0.306 C 
ATOM      4  O   UNL     1      12.340   8.701  14.974  1.00  0.00    -0.252 OA
BRANCH   3   5
ATOM      5  O   UNL     1      13.965   7.958  16.417  1.00  0.00    -0.481 OA
ATOM      6  H   UNL     1      14.019   7.415  17.271  1.00  0.00     0.296 HD
ENDBRANCH   3   5
ENDBRANCH   2   3
ENDBRANCH   1   2
BRANCH   1   7
ATOM      7  O   UNL     1      11.648   7.321  18.014  1.00  0.00    -0.377 OA
ATOM      8  H   UNL     1      12.533   6.930  18.236  1.00  0.00     0.212 HD
ENDBRANCH   1   7
BRANCH   1   9
ATOM      9  C   UNL     1      12.501   8.879  19.664  1.00  0.00     0.170 C 
BRANCH   9  10
ATOM     10  C   UNL     1      13.341   7.686  20.015  1.00  0.00     0.306 C 
ATOM     11  O   UNL     1      13.298   7.201  21.177  1.00  0.00    -0.252 OA
BRANCH  10  12
ATOM     12  O   UNL     1      14.156   7.102  19.049  1.00  0.00    -0.481 OA
ATOM     13  H   UNL     1      14.267   7.527  18.137  1.00  0.00     0.296 HD
ENDBRANCH  10  12
ENDBRANCH   9  10
ENDBRANCH   1   9
BRANCH   1  14
ATOM     14  C   UNL     1      10.235   9.099  18.685  1.00  0.00     0.336 C 
ATOM     15  O   UNL     1       9.918   9.456  19.854  1.00  0.00    -0.249 OA
BRANCH  14  16
ATOM     16  O   UNL     1       9.265   9.088  17.686  1.00  0.00    -0.479 OA
ATOM     17  H   UNL     1       9.484   8.760  16.753  1.00  0.00     0.296 HD
ENDBRANCH  14  16
ENDBRANCH   1  14
TORSDOF 9
ENDMDL
MODEL 2
REMARK VINA RESULT:    -5.231      1.686      2.255
REMARK INTER + INTRA:          -8.357
REMARK INTER:                  -7.414
REMARK INTRA:                  -0.943
REMARK UNBOUND:                -0.986
REMARK SMILES O=C(O)CC(O)(CC(=O)O)C(=O)O
REMARK SMILES IDX 5 1 4 2 2 3 1 4 3 5 6 7 7 9 8 10 9 11 10 12 11 14 12 15
REMARK SMILES IDX 13 16
REMARK H PARENT 3 6 6 8 10 13 13 17
REMARK Flexibility Score: inf
ROOT
ATOM      1  C   UNL     1      12.766   8.377  17.771  1.00  0.00     0.182 C 
ENDROOT
BRANCH   1   2
ATOM      2  C   UNL     1      13.056   9.858  18.151  1.00  0.00     0.170 C 
BRANCH   2   3
ATOM      3  C   UNL     1      14.125  10.466  17.290  1.00  0.00     0.306 C 
ATOM      4  O   UNL     1      13.857  10.835  16.116  1.00  0.00    -0.252 OA
BRANCH   3   5
ATOM      5  O   UNL     1      15.421  10.594  17.781  1.00  0.00    -0.481 OA
ATOM      6  H   UNL     1      16.220  10.348  17.208  1.00  0.00     0.296 HD
ENDBRANCH   3   5
ENDBRANCH   2   3
ENDBRANCH   1   2
BRANCH   1   7
ATOM      7  O   UNL     1      13.890   7.798  17.143  1.00  0.00    -0.377 OA
ATOM      8  H   UNL     1      13.710   6.831  17.004  1.00  0.00     0.212 HD
ENDBRANCH   1   7
BRANCH   1   9
ATOM      9  C   UNL     1      12.380   7.543  19.022  1.00  0.00     0.170 C 
BRANCH   9  10
ATOM     10  C   UNL     1      13.352   7.680  20.157  1.00  0.00     0.306 C 
ATOM     11  O   UNL     1      12.987   8.202  21.245  1.00  0.00    -0.252 OA
BRANCH  10  12
ATOM     12  O   UNL     1      14.656   7.215  20.014  1.00  0.00    -0.481 OA
ATOM     13  H   UNL     1      15.192   7.420  19.179  1.00  0.00     0.296 HD
ENDBRANCH  10  12
ENDBRANCH   9  10
ENDBRANCH   1   9
BRANCH   1  14
ATOM     14  C   UNL     1      11.606   8.324  16.801  1.00  0.00     0.336 C 
ATOM     15  O   UNL     1      10.449   8.028  17.210  1.00  0.00    -0.249 OA
BRANCH  14  16
ATOM     16  O   UNL     1      11.806   8.598  15.450  1.00  0.00    -0.479 OA
ATOM     17  H   UNL     1      12.632   9.092  15.136  1.00  0.00     0.296 HD
ENDBRANCH  14  16
ENDBRANCH   1  14
TORSDOF 9
ENDMDL
MODEL 3
REMARK VINA RESULT:    -5.225      1.932      4.428
REMARK INTER + INTRA:          -8.348
REMARK INTER:                  -7.271
REMARK INTRA:                  -1.077
REMARK UNBOUND:                -0.986
REMARK SMILES O=C(O)CC(O)(CC(=O)O)C(=O)O
REMARK SMILES IDX 5 1 4 2 2 3 1 4 3 5 6 7 7 9 8 10 9 11 10 12 11 14 12 15
REMARK SMILES IDX 13 16
REMARK H PARENT 3 6 6 8 10 13 13 17
REMARK Flexibility Score: inf
ROOT
ATOM      1  C   UNL     1      13.886   9.608  17.545  1.00  0.00     0.182 C 
ENDROOT
BRANCH   1   2
ATOM      2  C   UNL     1      14.158   9.344  19.055  1.00  0.00     0.170 C 
BRANCH   2   3
ATOM      3  C   UNL     1      13.654   8.000  19.496  1.00  0.00     0.306 C 
ATOM      4  O   UNL     1      12.997   7.892  20.565  1.00  0.00    -0.252 OA
BRANCH   3   5
ATOM      5  O   UNL     1      13.940   6.869  18.737  1.00  0.00    -0.481 OA
ATOM      6  H   UNL     1      14.881   6.690  18.406  1.00  0.00     0.296 HD
ENDBRANCH   3   5
ENDBRANCH   2   3
ENDBRANCH   1   2
BRANCH   1   7
ATOM      7  O   UNL     1      14.578   8.674  16.746  1.00  0.00    -0.377 OA
ATOM      8  H   UNL     1      15.010   9.159  15.996  1.00  0.00     0.212 HD
ENDBRANCH   1   7
BRANCH   1   9
ATOM      9  C   UNL     1      12.367   9.542  17.230  1.00  0.00     0.170 C 
BRANCH   9  10
ATOM     10  C   UNL     1      12.016   8.519  16.190  1.00  0.00     0.306 C 
ATOM     11  O   UNL     1      11.836   8.868  14.993  1.00  0.00    -0.252 OA
BRANCH  10  12
ATOM     12  O   UNL     1      11.903   7.178  16.545  1.00  0.00    -0.481 OA
ATOM     13  H   UNL     1      12.548   6.759  17.206  1.00  0.00     0.296 HD
ENDBRANCH  10  12
ENDBRANCH   9  10
ENDBRANCH   1   9
BRANCH   1  14
ATOM     14  C   UNL     1      14.376  10.993  17.181  1.00  0.00     0.336 C 
ATOM     15  O   UNL     1      13.677  11.740  16.441  1.00  0.00    -0.249 OA
BRANCH  14  16
ATOM     16  O   UNL     1      15.601  11.453  17.656  1.00  0.00    -0.479 OA
ATOM     17  H   UNL     1      15.708  12.405  17.984  1.00  0.00     0.296 HD
ENDBRANCH  14  16
ENDBRANCH   1  14
TORSDOF 9
ENDMDL
MODEL 4
REMARK VINA RESULT:    -5.199      1.278      3.591
REMARK INTER + INTRA:          -8.312
REMARK INTER:                  -7.403
REMARK INTRA:                  -0.910
REMARK UNBOUND:                -0.986
REMARK SMILES O=C(O)CC(O)(CC(=O)O)C(=O)O
REMARK SMILES IDX 5 1 4 2 2 3 1 4 3 5 6 7 7 9 8 10 9 11 10 12 11 14 12 15
REMARK SMILES IDX 13 16
REMARK H PARENT 3 6 6 8 10 13 13 17
REMARK Flexibility Score: inf
ROOT
ATOM      1  C   UNL     1      12.119   8.803  18.097  1.00  0.00     0.182 C 
ENDROOT
BRANCH   1   2
ATOM      2  C   UNL     1      11.955   8.060  16.740  1.00  0.00     0.170 C 
BRANCH   2   3
ATOM      3  C   UNL     1      12.802   8.665  15.657  1.00  0.00     0.306 C 
ATOM      4  O   UNL     1      14.057   8.658  15.758  1.00  0.00    -0.252 OA
BRANCH   3   5
ATOM      5  O   UNL     1      12.196   9.259  14.554  1.00  0.00    -0.481 OA
ATOM      6  H   UNL     1      11.261   9.645  14.620  1.00  0.00     0.296 HD
ENDBRANCH   3   5
ENDBRANCH   2   3
ENDBRANCH   1   2
BRANCH   1   7
ATOM      7  O   UNL     1      12.811  10.020  17.917  1.00  0.00    -0.377 OA
ATOM      8  H   UNL     1      13.544  10.067  18.584  1.00  0.00     0.212 HD
ENDBRANCH   1   7
BRANCH   1   9
ATOM      9  C   UNL     1      10.740   9.079  18.755  1.00  0.00     0.170 C 
BRANCH   9  10
ATOM     10  C   UNL     1       9.770   9.771  17.843  1.00  0.00     0.306 C 
ATOM     11  O   UNL     1       8.640   9.261  17.615  1.00  0.00    -0.252 OA
BRANCH  10  12
ATOM     12  O   UNL     1      10.112  10.989  17.262  1.00  0.00    -0.481 OA
ATOM     13  H   UNL     1      11.019  11.408  17.428  1.00  0.00     0.296 HD
ENDBRANCH  10  12
ENDBRANCH   9  10
ENDBRANCH   1   9
BRANCH   1  14
ATOM     14  C   UNL     1      12.922   7.942  19.048  1.00  0.00     0.336 C 
ATOM     15  O   UNL     1      12.727   8.017  20.293  1.00  0.00    -0.249 OA
BRANCH  14  16
ATOM     16  O   UNL     1      13.884   7.062  18.557  1.00  0.00    -0.479 OA
ATOM     17  H   UNL     1      13.637   6.338  17.894  1.00  0.00     0.296 HD
ENDBRANCH  14  16
ENDBRANCH   1  14
TORSDOF 9
ENDMDL
MODEL 5
REMARK VINA RESULT:    -5.166      1.239      3.981
REMARK INTER + INTRA:          -8.265
REMARK INTER:                  -7.116
REMARK INTRA:                  -1.150
REMARK UNBOUND:                -0.986
REMARK SMILES O=C(O)CC(O)(CC(=O)O)C(=O)O
REMARK SMILES IDX 5 1 4 2 2 3 1 4 3 5 6 7 7 9 8 10 9 11 10 12 11 14 12 15
REMARK SMILES IDX 13 16
REMARK H PARENT 3 6 6 8 10 13 13 17
REMARK Flexibility Score: inf
ROOT
ATOM      1  C   UNL     1      11.649   9.110  16.862  1.00  0.00     0.182 C 
ENDROOT
BRANCH   1   2
ATOM      2  C   UNL     1      12.900   9.242  17.777  1.00  0.00     0.170 C 
BRANCH   2   3
ATOM      3  C   UNL     1      13.013   8.105  18.751  1.00  0.00     0.306 C 
ATOM      4  O   UNL     1      12.415   8.160  19.858  1.00  0.00    -0.252 OA
BRANCH   3   5
ATOM      5  O   UNL     1      13.805   7.003  18.442  1.00  0.00    -0.481 OA
ATOM      6  H   UNL     1      14.306   6.504  19.167  1.00  0.00     0.296 HD
ENDBRANCH   3   5
ENDBRANCH   2   3
ENDBRANCH   1   2
BRANCH   1   7
ATOM      7  O   UNL     1      11.084   7.822  16.976  1.00  0.00    -0.377 OA
ATOM      8  H   UNL     1      10.448   7.689  16.226  1.00  0.00     0.212 HD
ENDBRANCH   1   7
BRANCH   1   9
ATOM      9  C   UNL     1      10.581  10.181  17.215  1.00  0.00     0.170 C 
BRANCH   9  10
ATOM     10  C   UNL     1       9.484   9.663  18.098  1.00  0.00     0.306 C 
ATOM     11  O   UNL     1       8.344   9.421  17.616  1.00  0.00    -0.252 OA
BRANCH  10  12
ATOM     12  O   UNL     1       9.728   9.434  19.449  1.00  0.00    -0.481 OA
ATOM     13  H   UNL     1       9.191   9.911  20.162  1.00  0.00     0.296 HD
ENDBRANCH  10  12
ENDBRANCH   9  10
ENDBRANCH   1   9
BRANCH   1  14
ATOM     14  C   UNL     1      12.056   9.319  15.420  1.00  0.00     0.336 C 
ATOM     15  O   UNL     1      13.088   8.755  14.963  1.00  0.00    -0.249 OA
BRANCH  14  16
ATOM     16  O   UNL     1      11.297  10.137  14.586  1.00  0.00    -0.479 OA
ATOM     17  H   UNL     1      10.750  10.901  14.964  1.00  0.00     0.296 HD
ENDBRANCH  14  16
ENDBRANCH   1  14
TORSDOF 9
ENDMDL
MODEL 6
REMARK VINA RESULT:    -5.158      1.833      3.585
REMARK INTER + INTRA:          -8.254
REMARK INTER:                  -7.293
REMARK INTRA:                  -0.961
REMARK UNBOUND:                -0.986
REMARK SMILES O=C(O)CC(O)(CC(=O)O)C(=O)O
REMARK SMILES IDX 5 1 4 2 2 3 1 4 3 5 6 7 7 9 8 10 9 11 10 12 11 14 12 15
REMARK SMILES IDX 13 16
REMARK H PARENT 3 6 6 8 10 13 13 17
REMARK Flexibility Score: inf
ROOT
ATOM      1  C   UNL     1      13.038   8.373  18.497  1.00  0.00     0.182 C 
ENDROOT
BRANCH   1   2
ATOM      2  C   UNL     1      11.557   7.976  18.236  1.00  0.00     0.170 C 
BRANCH   2   3
ATOM      3  C   UNL     1      11.379   7.278  16.919  1.00  0.00     0.306 C 
ATOM      4  O   UNL     1      10.966   6.089  16.885  1.00  0.00    -0.252 OA
BRANCH   3   5
ATOM      5  O   UNL     1      11.699   7.938  15.736  1.00  0.00    -0.481 OA
ATOM      6  H   UNL     1      11.397   8.892  15.576  1.00  0.00     0.296 HD
ENDBRANCH   3   5
ENDBRANCH   2   3
ENDBRANCH   1   2
BRANCH   1   7
ATOM      7  O   UNL     1      13.892   7.740  17.568  1.00  0.00    -0.377 OA
ATOM      8  H   UNL     1      13.698   6.767  17.574  1.00  0.00     0.212 HD
ENDBRANCH   1   7
BRANCH   1   9
ATOM      9  C   UNL     1      13.228   9.912  18.416  1.00  0.00     0.170 C 
BRANCH   9  10
ATOM     10  C   UNL     1      14.125  10.346  17.294  1.00  0.00     0.306 C 
ATOM     11  O   UNL     1      13.769  10.179  16.097  1.00  0.00    -0.252 OA
BRANCH  10  12
ATOM     12  O   UNL     1      15.347  10.951  17.576  1.00  0.00    -0.481 OA
ATOM     13  H   UNL     1      15.567  11.265  18.514  1.00  0.00     0.296 HD
ENDBRANCH  10  12
ENDBRANCH   9  10
ENDBRANCH   1   9
BRANCH   1  14
ATOM     14  C   UNL     1      13.442   7.928  19.885  1.00  0.00     0.336 C 
ATOM     15  O   UNL     1      12.751   8.263  20.887  1.00  0.00    -0.249 OA
BRANCH  14  16
ATOM     16  O   UNL     1      14.580   7.146  20.070  1.00  0.00    -0.479 OA
ATOM     17  H   UNL     1      14.540   6.139  19.976  1.00  0.00     0.296 HD
ENDBRANCH  14  16
ENDBRANCH   1  14
TORSDOF 9
ENDMDL
MODEL 7
REMARK VINA RESULT:    -5.157      0.797      4.083
REMARK INTER + INTRA:          -8.253
REMARK INTER:                  -7.107
REMARK INTRA:                  -1.147
REMARK UNBOUND:                -0.986
REMARK SMILES O=C(O)CC(O)(CC(=O)O)C(=O)O
REMARK SMILES IDX 5 1 4 2 2 3 1 4 3 5 6 7 7 9 8 10 9 11 10 12 11 14 12 15
REMARK SMILES IDX 13 16
REMARK H PARENT 3 6 6 8 10 13 13 17
REMARK Flexibility Score: inf
ROOT
ATOM      1  C   UNL     1      12.380   8.694  17.602  1.00  0.00     0.182 C 
ENDROOT
BRANCH   1   2
ATOM      2  C   UNL     1      13.485   9.128  18.608  1.00  0.00     0.170 C 
BRANCH   2   3
ATOM      3  C   UNL     1      13.545   8.226  19.807  1.00  0.00     0.306 C 
ATOM      4  O   UNL     1      12.763   8.412  20.777  1.00  0.00    -0.252 OA
BRANCH   3   5
ATOM      5  O   UNL     1      14.488   7.204  19.860  1.00  0.00    -0.481 OA
ATOM      6  H   UNL     1      14.414   6.464  20.548  1.00  0.00     0.296 HD
ENDBRANCH   3   5
ENDBRANCH   2   3
ENDBRANCH   1   2
BRANCH   1   7
ATOM      7  O   UNL     1      11.847   7.438  17.962  1.00  0.00    -0.377 OA
ATOM      8  H   UNL     1      12.402   7.057  18.692  1.00  0.00     0.212 HD
ENDBRANCH   1   7
BRANCH   1   9
ATOM      9  C   UNL     1      11.239   9.745  17.534  1.00  0.00     0.170 C 
BRANCH   9  10
ATOM     10  C   UNL     1      10.013   9.348  18.303  1.00  0.00     0.306 C 
ATOM     11  O   UNL     1       8.968   8.999  17.691  1.00  0.00    -0.252 OA
BRANCH  10  12
ATOM     12  O   UNL     1      10.034   9.350  19.694  1.00  0.00    -0.481 OA
ATOM     13  H   UNL     1      10.427   8.571  20.209  1.00  0.00     0.296 HD
ENDBRANCH  10  12
ENDBRANCH   9  10
ENDBRANCH   1   9
BRANCH   1  14
ATOM     14  C   UNL     1      12.980   8.571  16.218  1.00  0.00     0.336 C 
ATOM     15  O   UNL     1      12.239   8.621  15.197  1.00  0.00    -0.249 OA
BRANCH  14  16
ATOM     16  O   UNL     1      14.353   8.400  16.060  1.00  0.00    -0.479 OA
ATOM     17  H   UNL     1      14.968   8.355  16.863  1.00  0.00     0.296 HD
ENDBRANCH  14  16
ENDBRANCH   1  14
TORSDOF 9
ENDMDL
MODEL 8
REMARK VINA RESULT:    -5.150      2.032      3.495
REMARK INTER + INTRA:          -8.243
REMARK INTER:                  -7.333
REMARK INTRA:                  -0.910
REMARK UNBOUND:                -0.986
REMARK SMILES O=C(O)CC(O)(CC(=O)O)C(=O)O
REMARK SMILES IDX 5 1 4 2 2 3 1 4 3 5 6 7 7 9 8 10 9 11 10 12 11 14 12 15
REMARK SMILES IDX 13 16
REMARK H PARENT 3 6 6 8 10 13 13 17
REMARK Flexibility Score: inf
ROOT
ATOM      1  C   UNL     1      13.112   9.242  17.710  1.00  0.00     0.182 C 
ENDROOT
BRANCH   1   2
ATOM      2  C   UNL     1      13.556   9.109  16.225  1.00  0.00     0.170 C 
BRANCH   2   3
ATOM      3  C   UNL     1      12.718   9.949  15.305  1.00  0.00     0.306 C 
ATOM      4  O   UNL     1      12.949  11.182  15.189  1.00  0.00    -0.252 OA
BRANCH   3   5
ATOM      5  O   UNL     1      11.666   9.369  14.602  1.00  0.00    -0.481 OA
ATOM      6  H   UNL     1      10.867   9.921  14.315  1.00  0.00     0.296 HD
ENDBRANCH   3   5
ENDBRANCH   2   3
ENDBRANCH   1   2
BRANCH   1   7
ATOM      7  O   UNL     1      12.101  10.218  17.840  1.00  0.00    -0.377 OA
ATOM      8  H   UNL     1      12.391  11.038  17.361  1.00  0.00     0.212 HD
ENDBRANCH   1   7
BRANCH   1   9
ATOM      9  C   UNL     1      12.602   7.885  18.266  1.00  0.00     0.170 C 
BRANCH   9  10
ATOM     10  C   UNL     1      11.371   7.379  17.574  1.00  0.00     0.306 C 
ATOM     11  O   UNL     1      10.433   8.172  17.289  1.00  0.00    -0.252 OA
BRANCH  10  12
ATOM     12  O   UNL     1      11.270   6.034  17.232  1.00  0.00    -0.481 OA
ATOM     13  H   UNL     1      10.395   5.647  16.897  1.00  0.00     0.296 HD
ENDBRANCH  10  12
ENDBRANCH   9  10
ENDBRANCH   1   9
BRANCH   1  14
ATOM     14  C   UNL     1      14.293   9.674  18.552  1.00  0.00     0.336 C 
ATOM     15  O   UNL     1      14.329   9.403  19.784  1.00  0.00    -0.249 OA
BRANCH  14  16
ATOM     16  O   UNL     1      15.349  10.376  17.975  1.00  0.00    -0.479 OA
ATOM     17  H   UNL     1      15.662  11.257  18.364  1.00  0.00     0.296 HD
ENDBRANCH  14  16
ENDBRANCH   1  14
TORSDOF 9
ENDMDL
MODEL 9
REMARK VINA RESULT:    -5.149      1.973      4.504
REMARK INTER + INTRA:          -8.242
REMARK INTER:                  -7.413
REMARK INTRA:                  -0.829
REMARK UNBOUND:                -0.986
REMARK SMILES O=C(O)CC(O)(CC(=O)O)C(=O)O
REMARK SMILES IDX 5 1 4 2 2 3 1 4 3 5 6 7 7 9 8 10 9 11 10 12 11 14 12 15
REMARK SMILES IDX 13 16
REMARK H PARENT 3 6 6 8 10 13 13 17
REMARK Flexibility Score: inf
ROOT
ATOM      1  C   UNL     1      13.656   9.615  17.097  1.00  0.00     0.182 C 
ENDROOT
BRANCH   1   2
ATOM      2  C   UNL     1      12.404   9.099  17.863  1.00  0.00     0.170 C 
BRANCH   2   3
ATOM      3  C   UNL     1      12.430   7.610  18.055  1.00  0.00     0.306 C 
ATOM      4  O   UNL     1      11.430   6.915  17.732  1.00  0.00    -0.252 OA
BRANCH   3   5
ATOM      5  O   UNL     1      13.548   7.002  18.617  1.00  0.00    -0.481 OA
ATOM      6  H   UNL     1      14.372   7.544  18.849  1.00  0.00     0.296 HD
ENDBRANCH   3   5
ENDBRANCH   2   3
ENDBRANCH   1   2
BRANCH   1   7
ATOM      7  O   UNL     1      14.303   8.552  16.432  1.00  0.00    -0.377 OA
ATOM      8  H   UNL     1      13.612   7.962  16.033  1.00  0.00     0.212 HD
ENDBRANCH   1   7
BRANCH   1   9
ATOM      9  C   UNL     1      13.271  10.715  16.071  1.00  0.00     0.170 C 
BRANCH   9  10
ATOM     10  C   UNL     1      12.147  10.318  15.160  1.00  0.00     0.306 C 
ATOM     11  O   UNL     1      11.159  11.083  15.002  1.00  0.00    -0.252 OA
BRANCH  10  12
ATOM     12  O   UNL     1      12.203   9.107  14.476  1.00  0.00    -0.481 OA
ATOM     13  H   UNL     1      12.739   8.328  14.840  1.00  0.00     0.296 HD
ENDBRANCH  10  12
ENDBRANCH   9  10
ENDBRANCH   1   9
BRANCH   1  14
ATOM     14  C   UNL     1      14.634  10.219  18.080  1.00  0.00     0.336 C 
ATOM     15  O   UNL     1      14.649   9.832  19.282  1.00  0.00    -0.249 OA
BRANCH  14  16
ATOM     16  O   UNL     1      15.525  11.208  17.670  1.00  0.00    -0.479 OA
ATOM     17  H   UNL     1      16.454  11.269  18.067  1.00  0.00     0.296 HD
ENDBRANCH  14  16
ENDBRANCH   1  14
TORSDOF 9
ENDMDL
MODEL 10
REMARK VINA RESULT:    -5.146      1.428      3.583
REMARK INTER + INTRA:          -8.238
REMARK INTER:                  -7.530
REMARK INTRA:                  -0.708
REMARK UNBOUND:                -0.986
REMARK SMILES O=C(O)CC(O)(CC(=O)O)C(=O)O
REMARK SMILES IDX 5 1 4 2 2 3 1 4 3 5 6 7 7 9 8 10 9 11 10 12 11 14 12 15
REMARK SMILES IDX 13 16
REMARK H PARENT 3 6 6 8 10 13 13 17
REMARK Flexibility Score: inf
ROOT
ATOM      1  C   UNL     1      12.147   8.126  17.980  1.00  0.00     0.182 C 
ENDROOT
BRANCH   1   2
ATOM      2  C   UNL     1      11.434   9.477  18.273  1.00  0.00     0.170 C 
BRANCH   2   3
ATOM      3  C   UNL     1      10.284   9.726  17.341  1.00  0.00     0.306 C 
ATOM      4  O   UNL     1       9.155   9.223  17.582  1.00  0.00    -0.252 OA
BRANCH   3   5
ATOM      5  O   UNL     1      10.475  10.490  16.193  1.00  0.00    -0.481 OA
ATOM      6  H   UNL     1      11.397  10.596  15.788  1.00  0.00     0.296 HD
ENDBRANCH   3   5
ENDBRANCH   2   3
ENDBRANCH   1   2
BRANCH   1   7
ATOM      7  O   UNL     1      11.200   7.104  17.754  1.00  0.00    -0.377 OA
ATOM      8  H   UNL     1      10.386   7.511  17.359  1.00  0.00     0.212 HD
ENDBRANCH   1   7
BRANCH   1   9
ATOM      9  C   UNL     1      13.090   8.244  16.753  1.00  0.00     0.170 C 
BRANCH   9  10
ATOM     10  C   UNL     1      13.917   9.497  16.751  1.00  0.00     0.306 C 
ATOM     11  O   UNL     1      13.597  10.466  16.012  1.00  0.00    -0.252 OA
BRANCH  10  12
ATOM     12  O   UNL     1      15.031   9.595  17.581  1.00  0.00    -0.481 OA
ATOM     13  H   UNL     1      15.831   8.988  17.449  1.00  0.00     0.296 HD
ENDBRANCH  10  12
ENDBRANCH   9  10
ENDBRANCH   1   9
BRANCH   1  14
ATOM     14  C   UNL     1      12.988   7.732  19.175  1.00  0.00     0.336 C 
ATOM     15  O   UNL     1      12.642   8.079  20.338  1.00  0.00    -0.249 OA
BRANCH  14  16
ATOM     16  O   UNL     1      14.151   6.985  19.001  1.00  0.00    -0.479 OA
ATOM     17  H   UNL     1      14.793   7.191  18.246  1.00  0.00     0.296 HD
ENDBRANCH  14  16
ENDBRANCH   1  14
TORSDOF 9
ENDMDL
MODEL 11
REMARK VINA RESULT:    -5.118      1.408      2.486
REMARK INTER + INTRA:          -8.198
REMARK INTER:                  -7.876
REMARK INTRA:                  -0.322
REMARK UNBOUND:                -0.986
REMARK SMILES O=C(O)CC(O)(CC(=O)O)C(=O)O
REMARK SMILES IDX 5 1 4 2 2 3 1 4 3 5 6 7 7 9 8 10 9 11 10 12 11 14 12 15
REMARK SMILES IDX 13 16
REMARK H PARENT 3 6 6 8 10 13 13 17
REMARK Flexibility Score: inf
ROOT
ATOM      1  C   UNL     1      12.828   8.114  17.539  1.00  0.00     0.182 C 
ENDROOT
BRANCH   1   2
ATOM      2  C   UNL     1      13.522   8.465  16.191  1.00  0.00     0.170 C 
BRANCH   2   3
ATOM      3  C   UNL     1      12.845   9.603  15.483  1.00  0.00     0.306 C 
ATOM      4  O   UNL     1      13.261  10.781  15.641  1.00  0.00    -0.252 OA
BRANCH   3   5
ATOM      5  O   UNL     1      11.739   9.358  14.676  1.00  0.00    -0.481 OA
ATOM      6  H   UNL     1      11.726   8.571  14.037  1.00  0.00     0.296 HD
ENDBRANCH   3   5
ENDBRANCH   2   3
ENDBRANCH   1   2
BRANCH   1   7
ATOM      7  O   UNL     1      13.580   7.154  18.248  1.00  0.00    -0.377 OA
ATOM      8  H   UNL     1      13.384   6.257  17.871  1.00  0.00     0.212 HD
ENDBRANCH   1   7
BRANCH   1   9
ATOM      9  C   UNL     1      12.636   9.380  18.417  1.00  0.00     0.170 C 
BRANCH   9  10
ATOM     10  C   UNL     1      12.082   9.085  19.780  1.00  0.00     0.306 C 
ATOM     11  O   UNL     1      12.775   8.457  20.623  1.00  0.00    -0.252 OA
BRANCH  10  12
ATOM     12  O   UNL     1      10.804   9.521  20.119  1.00  0.00    -0.481 OA
ATOM     13  H   UNL     1      10.661  10.160  20.891  1.00  0.00     0.296 HD
ENDBRANCH  10  12
ENDBRANCH   9  10
ENDBRANCH   1   9
BRANCH   1  14
ATOM     14  C   UNL     1      11.460   7.529  17.263  1.00  0.00     0.336 C 
ATOM     15  O   UNL     1      10.441   8.274  17.249  1.00  0.00    -0.249 OA
BRANCH  14  16
ATOM     16  O   UNL     1      11.314   6.165  17.023  1.00  0.00    -0.479 OA
ATOM     17  H   UNL     1      10.461   5.796  16.621  1.00  0.00     0.296 HD
ENDBRANCH  14  16
ENDBRANCH   1  14
TORSDOF 9
ENDMDL
MODEL 12
REMARK VINA RESULT:    -5.099      1.903      4.531
REMARK INTER + INTRA:          -8.171
REMARK INTER:                  -7.066
REMARK INTRA:                  -1.105
REMARK UNBOUND:                -0.986
REMARK SMILES O=C(O)CC(O)(CC(=O)O)C(=O)O
REMARK SMILES IDX 5 1 4 2 2 3 1 4 3 5 6 7 7 9 8 10 9 11 10 12 11 14 12 15
REMARK SMILES IDX 13 16
REMARK H PARENT 3 6 6 8 10 13 13 17
REMARK Flexibility Score: inf
ROOT
ATOM      1  C   UNL     1      13.461   8.465  19.471  1.00  0.00     0.182 C 
ENDROOT
BRANCH   1   2
ATOM      2  C   UNL     1      13.216   8.704  20.989  1.00  0.00     0.170 C 
BRANCH   2   3
ATOM      3  C   UNL     1      13.917   7.688  21.844  1.00  0.00     0.306 C 
ATOM      4  O   UNL     1      15.111   7.877  22.199  1.00  0.00    -0.252 OA
BRANCH   3   5
ATOM      5  O   UNL     1      13.257   6.522  22.218  1.00  0.00    -0.481 OA
ATOM      6  H   UNL     1      13.750   5.775  22.694  1.00  0.00     0.296 HD
ENDBRANCH   3   5
ENDBRANCH   2   3
ENDBRANCH   1   2
BRANCH   1   7
ATOM      7  O   UNL     1      14.089   7.219  19.260  1.00  0.00    -0.377 OA
ATOM      8  H   UNL     1      14.111   6.728  20.122  1.00  0.00     0.212 HD
ENDBRANCH   1   7
BRANCH   1   9
ATOM      9  C   UNL     1      12.131   8.522  18.672  1.00  0.00     0.170 C 
BRANCH   9  10
ATOM     10  C   UNL     1      12.029   7.473  17.604  1.00  0.00     0.306 C 
ATOM     11  O   UNL     1      11.234   6.504  17.741  1.00  0.00    -0.252 OA
BRANCH  10  12
ATOM     12  O   UNL     1      12.801   7.578  16.451  1.00  0.00    -0.481 OA
ATOM     13  H   UNL     1      13.433   6.835  16.180  1.00  0.00     0.296 HD
ENDBRANCH  10  12
ENDBRANCH   9  10
ENDBRANCH   1   9
BRANCH   1  14
ATOM     14  C   UNL     1      14.372   9.547  18.933  1.00  0.00     0.336 C 
ATOM     15  O   UNL     1      14.653  10.553  19.643  1.00  0.00    -0.249 OA
BRANCH  14  16
ATOM     16  O   UNL     1      14.905   9.444  17.650  1.00  0.00    -0.479 OA
ATOM     17  H   UNL     1      14.345   9.661  16.835  1.00  0.00     0.296 HD
ENDBRANCH  14  16
ENDBRANCH   1  14
TORSDOF 9
ENDMDL
MODEL 13
REMARK VINA RESULT:    -5.067      2.319      3.351
REMARK INTER + INTRA:          -8.126
REMARK INTER:                  -7.230
REMARK INTRA:                  -0.896
REMARK UNBOUND:                -0.986
REMARK SMILES O=C(O)CC(O)(CC(=O)O)C(=O)O
REMARK SMILES IDX 5 1 4 2 2 3 1 4 3 5 6 7 7 9 8 10 9 11 10 12 11 14 12 15
REMARK SMILES IDX 13 16
REMARK H PARENT 3 6 6 8 10 13 13 17
REMARK Flexibility Score: inf
ROOT
ATOM      1  C   UNL     1      13.708  10.056  17.525  1.00  0.00     0.182 C 
ENDROOT
BRANCH   1   2
ATOM      2  C   UNL     1      13.883   9.173  16.256  1.00  0.00     0.170 C 
BRANCH   2   3
ATOM      3  C   UNL     1      12.568   8.701  15.707  1.00  0.00     0.306 C 
ATOM      4  O   UNL     1      11.987   7.710  16.225  1.00  0.00    -0.252 OA
BRANCH   3   5
ATOM      5  O   UNL     1      12.006   9.340  14.607  1.00  0.00    -0.481 OA
ATOM      6  H   UNL     1      12.401   9.224  13.681  1.00  0.00     0.296 HD
ENDBRANCH   3   5
ENDBRANCH   2   3
ENDBRANCH   1   2
BRANCH   1   7
ATOM      7  O   UNL     1      12.342  10.325  17.758  1.00  0.00    -0.377 OA
ATOM      8  H   UNL     1      12.272  11.148  18.308  1.00  0.00     0.212 HD
ENDBRANCH   1   7
BRANCH   1   9
ATOM      9  C   UNL     1      14.325   9.371  18.774  1.00  0.00     0.170 C 
BRANCH   9  10
ATOM     10  C   UNL     1      13.537   8.190  19.260  1.00  0.00     0.306 C 
ATOM     11  O   UNL     1      12.663   8.336  20.156  1.00  0.00    -0.252 OA
BRANCH  10  12
ATOM     12  O   UNL     1      13.761   6.932  18.708  1.00  0.00    -0.481 OA
ATOM     13  H   UNL     1      13.989   6.139  19.297  1.00  0.00     0.296 HD
ENDBRANCH  10  12
ENDBRANCH   9  10
ENDBRANCH   1   9
BRANCH   1  14
ATOM     14  C   UNL     1      14.419  11.376  17.321  1.00  0.00     0.336 C 
ATOM     15  O   UNL     1      13.822  12.341  16.769  1.00  0.00    -0.249 OA
BRANCH  14  16
ATOM     16  O   UNL     1      15.738  11.537  17.739  1.00  0.00    -0.479 OA
ATOM     17  H   UNL     1      16.008  12.324  18.317  1.00  0.00     0.296 HD
ENDBRANCH  14  16
ENDBRANCH   1  14
TORSDOF 9
ENDMDL
MODEL 14
REMARK VINA RESULT:    -5.064      1.860      3.911
REMARK INTER + INTRA:          -8.122
REMARK INTER:                  -7.104
REMARK INTRA:                  -1.019
REMARK UNBOUND:                -0.986
REMARK SMILES O=C(O)CC(O)(CC(=O)O)C(=O)O
REMARK SMILES IDX 5 1 4 2 2 3 1 4 3 5 6 7 7 9 8 10 9 11 10 12 11 14 12 15
REMARK SMILES IDX 13 16
REMARK H PARENT 3 6 6 8 10 13 13 17
REMARK Flexibility Score: inf
ROOT
ATOM      1  C   UNL     1      12.588   8.356  17.937  1.00  0.00     0.182 C 
ENDROOT
BRANCH   1   2
ATOM      2  C   UNL     1      13.300   7.415  18.951  1.00  0.00     0.170 C 
BRANCH   2   3
ATOM      3  C   UNL     1      13.591   8.100  20.255  1.00  0.00     0.306 C 
ATOM      4  O   UNL     1      13.178   7.603  21.336  1.00  0.00    -0.252 OA
BRANCH   3   5
ATOM      5  O   UNL     1      14.292   9.302  20.265  1.00  0.00    -0.481 OA
ATOM      6  H   UNL     1      15.050   9.456  20.919  1.00  0.00     0.296 HD
ENDBRANCH   3   5
ENDBRANCH   2   3
ENDBRANCH   1   2
BRANCH   1   7
ATOM      7  O   UNL     1      12.197   9.557  18.567  1.00  0.00    -0.377 OA
ATOM      8  H   UNL     1      12.080  10.255  17.870  1.00  0.00     0.212 HD
ENDBRANCH   1   7
BRANCH   1   9
ATOM      9  C   UNL     1      13.508   8.676  16.728  1.00  0.00     0.170 C 
BRANCH   9  10
ATOM     10  C   UNL     1      14.088  10.060  16.767  1.00  0.00     0.306 C 
ATOM     11  O   UNL     1      13.609  10.968  16.037  1.00  0.00    -0.252 OA
BRANCH  10  12
ATOM     12  O   UNL     1      15.148  10.345  17.623  1.00  0.00    -0.481 OA
ATOM     13  H   UNL     1      16.003   9.802  17.590  1.00  0.00     0.296 HD
ENDBRANCH  10  12
ENDBRANCH   9  10
ENDBRANCH   1   9
BRANCH   1  14
ATOM     14  C   UNL     1      11.345   7.676  17.407  1.00  0.00     0.336 C 
ATOM     15  O   UNL     1      10.278   8.334  17.251  1.00  0.00    -0.249 OA
BRANCH  14  16
ATOM     16  O   UNL     1      11.366   6.320  17.089  1.00  0.00    -0.479 OA
ATOM     17  H   UNL     1      10.717   5.675  17.522  1.00  0.00     0.296 HD
ENDBRANCH  14  16
ENDBRANCH   1  14
TORSDOF 9
ENDMDL
MODEL 15
REMARK VINA RESULT:    -4.996      1.773      3.428
REMARK INTER + INTRA:          -8.027
REMARK INTER:                  -6.974
REMARK INTRA:                  -1.053
REMARK UNBOUND:                -0.986
REMARK SMILES O=C(O)CC(O)(CC(=O)O)C(=O)O
REMARK SMILES IDX 5 1 4 2 2 3 1 4 3 5 6 7 7 9 8 10 9 11 10 12 11 14 12 15
REMARK SMILES IDX 13 16
REMARK H PARENT 3 6 6 8 10 13 13 17
REMARK Flexibility Score: inf
ROOT
ATOM      1  C   UNL     1      11.795   9.427  17.843  1.00  0.00     0.182 C 
ENDROOT
BRANCH   1   2
ATOM      2  C   UNL     1      11.768   7.957  18.354  1.00  0.00     0.170 C 
BRANCH   2   3
ATOM      3  C   UNL     1      12.892   7.666  19.304  1.00  0.00     0.306 C 
ATOM      4  O   UNL     1      12.797   7.997  20.516  1.00  0.00    -0.252 OA
BRANCH   3   5
ATOM      5  O   UNL     1      14.053   7.056  18.839  1.00  0.00    -0.481 OA
ATOM      6  H   UNL     1      14.259   7.019  17.848  1.00  0.00     0.296 HD
ENDBRANCH   3   5
ENDBRANCH   2   3
ENDBRANCH   1   2
BRANCH   1   7
ATOM      7  O   UNL     1      12.186  10.304  18.877  1.00  0.00    -0.377 OA
ATOM      8  H   UNL     1      13.008   9.944  19.302  1.00  0.00     0.212 HD
ENDBRANCH   1   7
BRANCH   1   9
ATOM      9  C   UNL     1      12.757   9.582  16.635  1.00  0.00     0.170 C 
BRANCH   9  10
ATOM     10  C   UNL     1      14.024  10.314  16.969  1.00  0.00     0.306 C 
ATOM     11  O   UNL     1      14.124  11.548  16.732  1.00  0.00    -0.252 OA
BRANCH  10  12
ATOM     12  O   UNL     1      15.086   9.633  17.556  1.00  0.00    -0.481 OA
ATOM     13  H   UNL     1      15.552   8.877  17.068  1.00  0.00     0.296 HD
ENDBRANCH  10  12
ENDBRANCH   9  10
ENDBRANCH   1   9
BRANCH   1  14
ATOM     14  C   UNL     1      10.409   9.826  17.386  1.00  0.00     0.336 C 
ATOM     15  O   UNL     1       9.426   9.060  17.592  1.00  0.00    -0.249 OA
BRANCH  14  16
ATOM     16  O   UNL     1      10.205  11.040  16.734  1.00  0.00    -0.479 OA
ATOM     17  H   UNL     1       9.792  11.071  15.811  1.00  0.00     0.296 HD
ENDBRANCH  14  16
ENDBRANCH   1  14
TORSDOF 9
ENDMDL
