MODEL 1
REMARK VINA RESULT:    -8.722      0.000      0.000
REMARK INTER + INTRA:         -12.306
REMARK INTER:                 -11.527
REMARK INTRA:                  -0.779
REMARK UNBOUND:                -0.779
REMARK SMILES C[N+]1(C)CCCC(OC(=O)C(O)(c2ccccc2)c2ccccc2)C1
REMARK SMILES IDX 9 1 10 2 8 3 7 4 1 5 2 6 3 7 4 8 25 9 5 10 6 11 11 12 12 13
REMARK SMILES IDX 13 15 14 16 18 17 15 18 17 19 16 20 19 21 20 22 24 23 21 24
REMARK SMILES IDX 23 25 22 26
REMARK H PARENT 12 14
REMARK Flexibility Score: inf
ROOT
ATOM      1  C   UNL     1      10.545  12.900  15.439  1.00  0.00     0.348 C 
ATOM      2  O   UNL     1       9.543  13.484  14.949  1.00  0.00    -0.248 OA
ENDROOT
BRANCH   1   3
ATOM      3  O   UNL     1      10.661  12.727  16.827  1.00  0.00    -0.454 OA
BRANCH   3   4
ATOM      4  C   UNL     1      10.065  11.672  17.593  1.00  0.00     0.231 C 
ATOM      5  C   UNL     1      10.933   8.732  18.725  1.00  0.00     0.334 C 
ATOM      6  N   UNL     1      10.477   9.962  19.417  1.00  0.00    -0.325 N 
ATOM      7  C   UNL     1      11.034   9.939  20.791  1.00  0.00     0.334 C 
ATOM      8  C   UNL     1       8.978   9.948  19.491  1.00  0.00     0.263 C 
ATOM      9  C   UNL     1      11.016  11.167  18.701  1.00  0.00     0.309 C 
ATOM     10  C   UNL     1       8.367  11.358  19.479  1.00  0.00     0.065 C 
ATOM     11  C   UNL     1       8.684  12.077  18.159  1.00  0.00     0.057 C 
ENDBRANCH   3   4
ENDBRANCH   1   3
BRANCH   1  12
ATOM     12  C   UNL     1      11.590  12.268  14.529  1.00  0.00     0.213 C 
BRANCH  12  13
ATOM     13  O   UNL     1      10.889  11.660  13.469  1.00  0.00    -0.370 OA
ATOM     14  H   UNL     1      11.534  11.120  12.938  1.00  0.00     0.213 HD
ENDBRANCH  12  13
BRANCH  12  15
ATOM     15  C   UNL     1      12.600  13.293  13.995  1.00  0.00    -0.001 A 
ATOM     16  C   UNL     1      13.022  14.380  14.793  1.00  0.00     0.008 A 
ATOM     17  C   UNL     1      13.035  13.239  12.652  1.00  0.00     0.008 A 
ATOM     18  C   UNL     1      13.887  15.349  14.279  1.00  0.00     0.000 A 
ATOM     19  C   UNL     1      13.902  14.210  12.144  1.00  0.00     0.000 A 
ATOM     20  C   UNL     1      14.331  15.260  12.956  1.00  0.00     0.000 A 
ENDBRANCH  12  15
BRANCH  12  21
ATOM     21  C   UNL     1      12.387  11.194  15.269  1.00  0.00    -0.001 A 
ATOM     22  C   UNL     1      13.434  11.531  16.156  1.00  0.00     0.008 A 
ATOM     23  C   UNL     1      12.181   9.831  14.969  1.00  0.00     0.008 A 
ATOM     24  C   UNL     1      14.202  10.537  16.766  1.00  0.00     0.000 A 
ATOM     25  C   UNL     1      12.951   8.837  15.585  1.00  0.00     0.000 A 
ATOM     26  C   UNL     1      13.956   9.190  16.488  1.00  0.00     0.000 A 
ENDBRANCH  12  21
ENDBRANCH   1  12
TORSDOF 6
ENDMDL
MODEL 2
REMARK VINA RESULT:    -8.695      0.789      3.856
REMARK INTER + INTRA:         -12.270
REMARK INTER:                 -11.563
REMARK INTRA:                  -0.707
REMARK UNBOUND:                -0.779
REMARK SMILES C[N+]1(C)CCCC(OC(=O)C(O)(c2ccccc2)c2ccccc2)C1
REMARK SMILES IDX 9 1 10 2 8 3 7 4 1 5 2 6 3 7 4 8 25 9 5 10 6 11 11 12 12 13
REMARK SMILES IDX 13 15 14 16 18 17 15 18 17 19 16 20 19 21 20 22 24 23 21 24
REMARK SMILES IDX 23 25 22 26
REMARK H PARENT 12 14
REMARK Flexibility Score: inf
ROOT
ATOM      1  C   UNL     1      10.858  13.064  15.787  1.00  0.00     0.348 C 
ATOM      2  O   UNL     1      10.078  13.092  14.799  1.00  0.00    -0.248 OA
ENDROOT
BRANCH   1   3
ATOM      3  O   UNL     1      10.352  13.031  17.095  1.00  0.00    -0.454 OA
BRANCH   3   4
ATOM      4  C   UNL     1       9.892  11.863  17.786  1.00  0.00     0.231 C 
ATOM      5  C   UNL     1      11.089   8.944  18.639  1.00  0.00     0.334 C 
ATOM      6  N   UNL     1      10.540  10.061  19.446  1.00  0.00    -0.325 N 
ATOM      7  C   UNL     1      11.149   9.983  20.796  1.00  0.00     0.334 C 
ATOM      8  C   UNL     1       9.054   9.888  19.563  1.00  0.00     0.263 C 
ATOM      9  C   UNL     1      10.930  11.369  18.818  1.00  0.00     0.309 C 
ATOM     10  C   UNL     1       8.308  11.226  19.690  1.00  0.00     0.065 C 
ATOM     11  C   UNL     1       8.501  12.078  18.427  1.00  0.00     0.057 C 
ENDBRANCH   3   4
ENDBRANCH   1   3
BRANCH   1  12
ATOM     12  C   UNL     1      12.362  12.948  15.578  1.00  0.00     0.213 C 
BRANCH  12  13
ATOM     13  O   UNL     1      12.970  13.783  16.537  1.00  0.00    -0.370 OA
ATOM     14  H   UNL     1      13.844  13.381  16.790  1.00  0.00     0.213 HD
ENDBRANCH  12  13
BRANCH  12  15
ATOM     15  C   UNL     1      12.865  11.505  15.717  1.00  0.00    -0.001 A 
ATOM     16  C   UNL     1      12.230  10.446  15.031  1.00  0.00     0.008 A 
ATOM     17  C   UNL     1      13.897  11.190  16.629  1.00  0.00     0.008 A 
ATOM     18  C   UNL     1      12.647   9.125  15.216  1.00  0.00     0.000 A 
ATOM     19  C   UNL     1      14.311   9.867  16.807  1.00  0.00     0.000 A 
ATOM     20  C   UNL     1      13.691   8.838  16.100  1.00  0.00     0.000 A 
ENDBRANCH  12  15
BRANCH  12  21
ATOM     21  C   UNL     1      12.763  13.432  14.184  1.00  0.00    -0.001 A 
ATOM     22  C   UNL     1      12.567  12.627  13.039  1.00  0.00     0.008 A 
ATOM     23  C   UNL     1      13.468  14.645  14.034  1.00  0.00     0.008 A 
ATOM     24  C   UNL     1      13.006  13.052  11.783  1.00  0.00     0.000 A 
ATOM     25  C   UNL     1      13.905  15.068  12.773  1.00  0.00     0.000 A 
ATOM     26  C   UNL     1      13.668  14.275  11.648  1.00  0.00     0.000 A 
ENDBRANCH  12  21
ENDBRANCH   1  12
TORSDOF 6
ENDMDL
MODEL 3
REMARK VINA RESULT:    -8.537      1.339      3.841
REMARK INTER + INTRA:         -12.061
REMARK INTER:                 -11.430
REMARK INTRA:                  -0.632
REMARK UNBOUND:                -0.779
REMARK SMILES C[N+]1(C)CCCC(OC(=O)C(O)(c2ccccc2)c2ccccc2)C1
REMARK SMILES IDX 9 1 10 2 8 3 7 4 1 5 2 6 3 7 4 8 25 9 5 10 6 11 11 12 12 13
REMARK SMILES IDX 13 15 14 16 18 17 15 18 17 19 16 20 19 21 20 22 24 23 21 24
REMARK SMILES IDX 23 25 22 26
REMARK H PARENT 12 14
REMARK Flexibility Score: inf
ROOT
ATOM      1  C   UNL     1      11.056  13.113  16.377  1.00  0.00     0.348 C 
ATOM      2  O   UNL     1      10.990  14.164  17.067  1.00  0.00    -0.248 OA
ENDROOT
BRANCH   1   3
ATOM      3  O   UNL     1       9.979  12.214  16.342  1.00  0.00    -0.454 OA
BRANCH   3   4
ATOM      4  C   UNL     1       9.665  11.243  17.348  1.00  0.00     0.231 C 
ATOM      5  C   UNL     1      11.113   8.664  18.739  1.00  0.00     0.334 C 
ATOM      6  N   UNL     1      10.594   9.932  19.308  1.00  0.00    -0.325 N 
ATOM      7  C   UNL     1      11.352  10.210  20.552  1.00  0.00     0.334 C 
ATOM      8  C   UNL     1       9.142   9.753  19.643  1.00  0.00     0.263 C 
ATOM      9  C   UNL     1      10.837  11.052  18.337  1.00  0.00     0.309 C 
ATOM     10  C   UNL     1       8.339  11.058  19.527  1.00  0.00     0.065 C 
ATOM     11  C   UNL     1       8.343  11.573  18.080  1.00  0.00     0.057 C 
ENDBRANCH   3   4
ENDBRANCH   1   3
BRANCH   1  12
ATOM     12  C   UNL     1      12.258  12.855  15.478  1.00  0.00     0.213 C 
BRANCH  12  13
ATOM     13  O   UNL     1      13.217  13.839  15.792  1.00  0.00    -0.370 OA
ATOM     14  H   UNL     1      13.806  13.481  16.509  1.00  0.00     0.213 HD
ENDBRANCH  12  13
BRANCH  12  15
ATOM     15  C   UNL     1      12.842  11.449  15.665  1.00  0.00    -0.001 A 
ATOM     16  C   UNL     1      12.299  10.341  14.977  1.00  0.00     0.008 A 
ATOM     17  C   UNL     1      13.853  11.214  16.623  1.00  0.00     0.008 A 
ATOM     18  C   UNL     1      12.788   9.051  15.204  1.00  0.00     0.000 A 
ATOM     19  C   UNL     1      14.339   9.922  16.843  1.00  0.00     0.000 A 
ATOM     20  C   UNL     1      13.811   8.844  16.133  1.00  0.00     0.000 A 
ENDBRANCH  12  15
BRANCH  12  21
ATOM     21  C   UNL     1      11.881  12.994  14.003  1.00  0.00    -0.001 A 
ATOM     22  C   UNL     1      12.841  12.832  12.978  1.00  0.00     0.008 A 
ATOM     23  C   UNL     1      10.587  13.425  13.642  1.00  0.00     0.008 A 
ATOM     24  C   UNL     1      12.499  13.035  11.639  1.00  0.00     0.000 A 
ATOM     25  C   UNL     1      10.248  13.625  12.299  1.00  0.00     0.000 A 
ATOM     26  C   UNL     1      11.201  13.424  11.298  1.00  0.00     0.000 A 
ENDBRANCH  12  21
ENDBRANCH   1  12
TORSDOF 6
ENDMDL
MODEL 4
REMARK VINA RESULT:    -8.490      1.435      3.801
REMARK INTER + INTRA:         -11.999
REMARK INTER:                 -11.419
REMARK INTRA:                  -0.581
REMARK UNBOUND:                -0.779
REMARK SMILES C[N+]1(C)CCCC(OC(=O)C(O)(c2ccccc2)c2ccccc2)C1
REMARK SMILES IDX 9 1 10 2 8 3 7 4 1 5 2 6 3 7 4 8 25 9 5 10 6 11 11 12 12 13
REMARK SMILES IDX 13 15 14 16 18 17 15 18 17 19 16 20 19 21 20 22 24 23 21 24
REMARK SMILES IDX 23 25 22 26
REMARK H PARENT 12 14
REMARK Flexibility Score: inf
ROOT
ATOM      1  C   UNL     1      10.979  13.652  15.587  1.00  0.00     0.348 C 
ATOM      2  O   UNL     1      10.852  14.852  15.946  1.00  0.00    -0.248 OA
ENDROOT
BRANCH   1   3
ATOM      3  O   UNL     1       9.901  12.758  15.688  1.00  0.00    -0.454 OA
BRANCH   3   4
ATOM      4  C   UNL     1       9.268  12.345  16.905  1.00  0.00     0.231 C 
ATOM      5  C   UNL     1       8.908   9.581  18.612  1.00  0.00     0.334 C 
ATOM      6  N   UNL     1       9.513  10.889  18.965  1.00  0.00    -0.325 N 
ATOM      7  C   UNL     1      10.525  10.647  20.021  1.00  0.00     0.334 C 
ATOM      8  C   UNL     1       8.439  11.788  19.506  1.00  0.00     0.263 C 
ATOM      9  C   UNL     1      10.203  11.461  17.760  1.00  0.00     0.309 C 
ATOM     10  C   UNL     1       8.708  13.274  19.221  1.00  0.00     0.065 C 
ATOM     11  C   UNL     1       8.717  13.545  17.709  1.00  0.00     0.057 C 
ENDBRANCH   3   4
ENDBRANCH   1   3
BRANCH   1  12
ATOM     12  C   UNL     1      12.268  13.177  14.930  1.00  0.00     0.213 C 
BRANCH  12  13
ATOM     13  O   UNL     1      13.261  14.122  15.257  1.00  0.00    -0.370 OA
ATOM     14  H   UNL     1      12.853  15.028  15.220  1.00  0.00     0.213 HD
ENDBRANCH  12  13
BRANCH  12  15
ATOM     15  C   UNL     1      12.682  11.774  15.393  1.00  0.00    -0.001 A 
ATOM     16  C   UNL     1      13.651  11.600  16.406  1.00  0.00     0.008 A 
ATOM     17  C   UNL     1      12.192  10.626  14.730  1.00  0.00     0.008 A 
ATOM     18  C   UNL     1      14.076  10.321  16.776  1.00  0.00     0.000 A 
ATOM     19  C   UNL     1      12.619   9.350  15.106  1.00  0.00     0.000 A 
ATOM     20  C   UNL     1      13.555   9.197  16.129  1.00  0.00     0.000 A 
ENDBRANCH  12  15
BRANCH  12  21
ATOM     21  C   UNL     1      12.124  13.125  13.409  1.00  0.00    -0.001 A 
ATOM     22  C   UNL     1      13.249  13.215  12.558  1.00  0.00     0.008 A 
ATOM     23  C   UNL     1      10.842  13.127  12.821  1.00  0.00     0.008 A 
ATOM     24  C   UNL     1      13.095  13.242  11.170  1.00  0.00     0.000 A 
ATOM     25  C   UNL     1      10.692  13.152  11.430  1.00  0.00     0.000 A 
ATOM     26  C   UNL     1      11.818  13.202  10.605  1.00  0.00     0.000 A 
ENDBRANCH  12  21
ENDBRANCH   1  12
TORSDOF 6
ENDMDL
MODEL 5
REMARK VINA RESULT:    -8.387     11.328     14.988
REMARK INTER + INTRA:         -11.862
REMARK INTER:                 -11.006
REMARK INTRA:                  -0.856
REMARK UNBOUND:                -0.779
REMARK SMILES C[N+]1(C)CCCC(OC(=O)C(O)(c2ccccc2)c2ccccc2)C1
REMARK SMILES IDX 9 1 10 2 8 3 7 4 1 5 2 6 3 7 4 8 25 9 5 10 6 11 11 12 12 13
REMARK SMILES IDX 13 15 14 16 18 17 15 18 17 19 16 20 19 21 20 22 24 23 21 24
REMARK SMILES IDX 23 25 22 26
REMARK H PARENT 12 14
REMARK Flexibility Score: inf
ROOT
ATOM      1  C   UNL     1      18.099  13.574   3.662  1.00  0.00     0.348 C 
ATOM      2  O   UNL     1      18.260  14.813   3.820  1.00  0.00    -0.248 OA
ENDROOT
BRANCH   1   3
ATOM      3  O   UNL     1      19.195  12.743   3.383  1.00  0.00    -0.454 OA
BRANCH   3   4
ATOM      4  C   UNL     1      20.567  13.041   3.670  1.00  0.00     0.231 C 
ATOM      5  C   UNL     1      22.252  14.640   5.969  1.00  0.00     0.334 C 
ATOM      6  N   UNL     1      22.292  13.228   5.518  1.00  0.00    -0.325 N 
ATOM      7  C   UNL     1      22.774  12.405   6.653  1.00  0.00     0.334 C 
ATOM      8  C   UNL     1      23.260  13.112   4.377  1.00  0.00     0.263 C 
ATOM      9  C   UNL     1      20.905  12.779   5.155  1.00  0.00     0.309 C 
ATOM     10  C   UNL     1      22.885  11.998   3.387  1.00  0.00     0.065 C 
ATOM     11  C   UNL     1      21.533  12.296   2.721  1.00  0.00     0.057 C 
ENDBRANCH   3   4
ENDBRANCH   1   3
BRANCH   1  12
ATOM     12  C   UNL     1      16.733  12.940   3.887  1.00  0.00     0.213 C 
BRANCH  12  13
ATOM     13  O   UNL     1      16.959  11.715   4.547  1.00  0.00    -0.370 OA
ATOM     14  H   UNL     1      17.617  11.192   4.016  1.00  0.00     0.213 HD
ENDBRANCH  12  13
BRANCH  12  15
ATOM     15  C   UNL     1      15.797  13.835   4.710  1.00  0.00    -0.001 A 
ATOM     16  C   UNL     1      15.512  13.538   6.061  1.00  0.00     0.008 A 
ATOM     17  C   UNL     1      15.106  14.904   4.098  1.00  0.00     0.008 A 
ATOM     18  C   UNL     1      14.605  14.315   6.786  1.00  0.00     0.000 A 
ATOM     19  C   UNL     1      14.202  15.680   4.830  1.00  0.00     0.000 A 
ATOM     20  C   UNL     1      13.955  15.389   6.171  1.00  0.00     0.000 A 
ENDBRANCH  12  15
BRANCH  12  21
ATOM     21  C   UNL     1      16.033  12.657   2.558  1.00  0.00    -0.001 A 
ATOM     22  C   UNL     1      15.102  11.601   2.425  1.00  0.00     0.008 A 
ATOM     23  C   UNL     1      16.410  13.363   1.396  1.00  0.00     0.008 A 
ATOM     24  C   UNL     1      14.527  11.308   1.186  1.00  0.00     0.000 A 
ATOM     25  C   UNL     1      15.829  13.068   0.158  1.00  0.00     0.000 A 
ATOM     26  C   UNL     1      14.883  12.046   0.054  1.00  0.00     0.000 A 
ENDBRANCH  12  21
ENDBRANCH   1  12
TORSDOF 6
ENDMDL
MODEL 6
REMARK VINA RESULT:    -8.224      2.812      5.281
REMARK INTER + INTRA:         -11.648
REMARK INTER:                 -10.970
REMARK INTRA:                  -0.678
REMARK UNBOUND:                -0.779
REMARK SMILES C[N+]1(C)CCCC(OC(=O)C(O)(c2ccccc2)c2ccccc2)C1
REMARK SMILES IDX 9 1 10 2 8 3 7 4 1 5 2 6 3 7 4 8 25 9 5 10 6 11 11 12 12 13
REMARK SMILES IDX 13 15 14 16 18 17 15 18 17 19 16 20 19 21 20 22 24 23 21 24
REMARK SMILES IDX 23 25 22 26
REMARK H PARENT 12 14
REMARK Flexibility Score: inf
ROOT
ATOM      1  C   UNL     1      10.408  12.753  15.661  1.00  0.00     0.348 C 
ATOM      2  O   UNL     1      10.011  11.883  16.480  1.00  0.00    -0.248 OA
ENDROOT
BRANCH   1   3
ATOM      3  O   UNL     1       9.542  13.764  15.218  1.00  0.00    -0.454 OA
BRANCH   3   4
ATOM      4  C   UNL     1       8.512  14.385  15.998  1.00  0.00     0.231 C 
ATOM      5  C   UNL     1       8.222  15.741  18.958  1.00  0.00     0.334 C 
ATOM      6  N   UNL     1       7.999  16.285  17.596  1.00  0.00    -0.325 N 
ATOM      7  C   UNL     1       8.207  17.751  17.656  1.00  0.00     0.334 C 
ATOM      8  C   UNL     1       6.582  16.002  17.189  1.00  0.00     0.263 C 
ATOM      9  C   UNL     1       9.007  15.695  16.651  1.00  0.00     0.309 C 
ATOM     10  C   UNL     1       6.423  15.823  15.671  1.00  0.00     0.065 C 
ATOM     11  C   UNL     1       7.218  14.603  15.181  1.00  0.00     0.057 C 
ENDBRANCH   3   4
ENDBRANCH   1   3
BRANCH   1  12
ATOM     12  C   UNL     1      11.867  12.792  15.225  1.00  0.00     0.213 C 
BRANCH  12  13
ATOM     13  O   UNL     1      12.460  13.882  15.892  1.00  0.00    -0.370 OA
ATOM     14  H   UNL     1      13.271  13.554  16.365  1.00  0.00     0.213 HD
ENDBRANCH  12  13
BRANCH  12  15
ATOM     15  C   UNL     1      12.611  11.489  15.547  1.00  0.00    -0.001 A 
ATOM     16  C   UNL     1      12.251  10.274  14.921  1.00  0.00     0.008 A 
ATOM     17  C   UNL     1      13.589  11.455  16.565  1.00  0.00     0.008 A 
ATOM     18  C   UNL     1      12.885   9.078  15.269  1.00  0.00     0.000 A 
ATOM     19  C   UNL     1      14.221  10.255  16.906  1.00  0.00     0.000 A 
ATOM     20  C   UNL     1      13.873   9.071  16.257  1.00  0.00     0.000 A 
ENDBRANCH  12  15
BRANCH  12  21
ATOM     21  C   UNL     1      11.985  13.017  13.718  1.00  0.00    -0.001 A 
ATOM     22  C   UNL     1      10.933  12.680  12.836  1.00  0.00     0.008 A 
ATOM     23  C   UNL     1      13.211  13.441  13.161  1.00  0.00     0.008 A 
ATOM     24  C   UNL     1      11.084  12.822  11.455  1.00  0.00     0.000 A 
ATOM     25  C   UNL     1      13.357  13.584  11.777  1.00  0.00     0.000 A 
ATOM     26  C   UNL     1      12.293  13.281  10.925  1.00  0.00     0.000 A 
ENDBRANCH  12  21
ENDBRANCH   1  12
TORSDOF 6
ENDMDL
MODEL 7
REMARK VINA RESULT:    -8.176     11.604     13.681
REMARK INTER + INTRA:         -11.584
REMARK INTER:                 -10.650
REMARK INTRA:                  -0.933
REMARK UNBOUND:                -0.779
REMARK SMILES C[N+]1(C)CCCC(OC(=O)C(O)(c2ccccc2)c2ccccc2)C1
REMARK SMILES IDX 9 1 10 2 8 3 7 4 1 5 2 6 3 7 4 8 25 9 5 10 6 11 11 12 12 13
REMARK SMILES IDX 13 15 14 16 18 17 15 18 17 19 16 20 19 21 20 22 24 23 21 24
REMARK SMILES IDX 23 25 22 26
REMARK H PARENT 12 14
REMARK Flexibility Score: inf
ROOT
ATOM      1  C   UNL     1      15.313  13.246   5.051  1.00  0.00     0.348 C 
ATOM      2  O   UNL     1      15.368  13.056   6.295  1.00  0.00    -0.248 OA
ENDROOT
BRANCH   1   3
ATOM      3  O   UNL     1      14.425  14.190   4.512  1.00  0.00    -0.454 OA
BRANCH   3   4
ATOM      4  C   UNL     1      13.783  15.245   5.237  1.00  0.00     0.231 C 
ATOM      5  C   UNL     1      14.433  18.340   6.062  1.00  0.00     0.334 C 
ATOM      6  N   UNL     1      13.328  17.738   5.278  1.00  0.00    -0.325 N 
ATOM      7  C   UNL     1      12.820  18.774   4.346  1.00  0.00     0.334 C 
ATOM      8  C   UNL     1      12.229  17.338   6.219  1.00  0.00     0.263 C 
ATOM      9  C   UNL     1      13.856  16.586   4.473  1.00  0.00     0.309 C 
ATOM     10  C   UNL     1      11.430  16.123   5.720  1.00  0.00     0.065 C 
ATOM     11  C   UNL     1      12.331  14.883   5.625  1.00  0.00     0.057 C 
ENDBRANCH   3   4
ENDBRANCH   1   3
BRANCH   1  12
ATOM     12  C   UNL     1      16.290  12.540   4.120  1.00  0.00     0.213 C 
BRANCH  12  13
ATOM     13  O   UNL     1      16.491  11.249   4.648  1.00  0.00    -0.370 OA
ATOM     14  H   UNL     1      17.358  10.903   4.304  1.00  0.00     0.213 HD
ENDBRANCH  12  13
BRANCH  12  15
ATOM     15  C   UNL     1      15.775  12.462   2.677  1.00  0.00    -0.001 A 
ATOM     16  C   UNL     1      14.938  11.402   2.262  1.00  0.00     0.008 A 
ATOM     17  C   UNL     1      16.225  13.381   1.703  1.00  0.00     0.008 A 
ATOM     18  C   UNL     1      14.528  11.296   0.930  1.00  0.00     0.000 A 
ATOM     19  C   UNL     1      15.809  13.272   0.374  1.00  0.00     0.000 A 
ATOM     20  C   UNL     1      14.959  12.235  -0.011  1.00  0.00     0.000 A 
ENDBRANCH  12  15
BRANCH  12  21
ATOM     21  C   UNL     1      17.634  13.266   4.079  1.00  0.00    -0.001 A 
ATOM     22  C   UNL     1      18.827  12.591   3.733  1.00  0.00     0.008 A 
ATOM     23  C   UNL     1      17.730  14.601   4.526  1.00  0.00     0.008 A 
ATOM     24  C   UNL     1      20.058  13.250   3.773  1.00  0.00     0.000 A 
ATOM     25  C   UNL     1      18.965  15.258   4.562  1.00  0.00     0.000 A 
ATOM     26  C   UNL     1      20.127  14.585   4.180  1.00  0.00     0.000 A 
ENDBRANCH  12  21
ENDBRANCH   1  12
TORSDOF 6
ENDMDL
MODEL 8
REMARK VINA RESULT:    -8.171      2.861      4.838
REMARK INTER + INTRA:         -11.578
REMARK INTER:                 -10.846
REMARK INTRA:                  -0.732
REMARK UNBOUND:                -0.779
REMARK SMILES C[N+]1(C)CCCC(OC(=O)C(O)(c2ccccc2)c2ccccc2)C1
REMARK SMILES IDX 9 1 10 2 8 3 7 4 1 5 2 6 3 7 4 8 25 9 5 10 6 11 11 12 12 13
REMARK SMILES IDX 13 15 14 16 18 17 15 18 17 19 16 20 19 21 20 22 24 23 21 24
REMARK SMILES IDX 23 25 22 26
REMARK H PARENT 12 14
REMARK Flexibility Score: inf
ROOT
ATOM      1  C   UNL     1      13.481  11.902  19.535  1.00  0.00     0.348 C 
ATOM      2  O   UNL     1      13.236  13.132  19.646  1.00  0.00    -0.248 OA
ENDROOT
BRANCH   1   3
ATOM      3  O   UNL     1      12.692  10.954  20.205  1.00  0.00    -0.454 OA
BRANCH   3   4
ATOM      4  C   UNL     1      11.390  10.512  19.801  1.00  0.00     0.231 C 
ATOM      5  C   UNL     1       8.342  11.691  19.796  1.00  0.00     0.334 C 
ATOM      6  N   UNL     1       9.222  11.223  18.698  1.00  0.00    -0.325 N 
ATOM      7  C   UNL     1       8.801  11.916  17.457  1.00  0.00     0.334 C 
ATOM      8  C   UNL     1       9.036   9.743  18.526  1.00  0.00     0.263 C 
ATOM      9  C   UNL     1      10.644  11.602  19.001  1.00  0.00     0.309 C 
ATOM     10  C   UNL     1      10.303   9.039  18.016  1.00  0.00     0.065 C 
ATOM     11  C   UNL     1      11.446   9.171  19.033  1.00  0.00     0.057 C 
ENDBRANCH   3   4
ENDBRANCH   1   3
BRANCH   1  12
ATOM     12  C   UNL     1      14.564  11.415  18.581  1.00  0.00     0.213 C 
BRANCH  12  13
ATOM     13  O   UNL     1      15.324  10.459  19.285  1.00  0.00    -0.370 OA
ATOM     14  H   UNL     1      16.105  10.208  18.724  1.00  0.00     0.213 HD
ENDBRANCH  12  13
BRANCH  12  15
ATOM     15  C   UNL     1      13.985  10.808  17.296  1.00  0.00    -0.001 A 
ATOM     16  C   UNL     1      13.066  11.531  16.503  1.00  0.00     0.008 A 
ATOM     17  C   UNL     1      14.266   9.469  16.945  1.00  0.00     0.008 A 
ATOM     18  C   UNL     1      12.488  10.948  15.371  1.00  0.00     0.000 A 
ATOM     19  C   UNL     1      13.686   8.893  15.811  1.00  0.00     0.000 A 
ATOM     20  C   UNL     1      12.803   9.632  15.024  1.00  0.00     0.000 A 
ENDBRANCH  12  15
BRANCH  12  21
ATOM     21  C   UNL     1      15.485  12.561  18.164  1.00  0.00    -0.001 A 
ATOM     22  C   UNL     1      14.987  13.702  17.494  1.00  0.00     0.008 A 
ATOM     23  C   UNL     1      16.882  12.436  18.317  1.00  0.00     0.008 A 
ATOM     24  C   UNL     1      15.851  14.705  17.052  1.00  0.00     0.000 A 
ATOM     25  C   UNL     1      17.745  13.445  17.875  1.00  0.00     0.000 A 
ATOM     26  C   UNL     1      17.229  14.582  17.249  1.00  0.00     0.000 A 
ENDBRANCH  12  21
ENDBRANCH   1  12
TORSDOF 6
ENDMDL
MODEL 9
REMARK VINA RESULT:    -8.169      2.592      4.515
REMARK INTER + INTRA:         -11.574
REMARK INTER:                 -11.301
REMARK INTRA:                  -0.273
REMARK UNBOUND:                -0.779
REMARK SMILES C[N+]1(C)CCCC(OC(=O)C(O)(c2ccccc2)c2ccccc2)C1
REMARK SMILES IDX 9 1 10 2 8 3 7 4 1 5 2 6 3 7 4 8 25 9 5 10 6 11 11 12 12 13
REMARK SMILES IDX 13 15 14 16 18 17 15 18 17 19 16 20 19 21 20 22 24 23 21 24
REMARK SMILES IDX 23 25 22 26
REMARK H PARENT 12 14
REMARK Flexibility Score: inf
ROOT
ATOM      1  C   UNL     1      11.334   8.111  17.418  1.00  0.00     0.348 C 
ATOM      2  O   UNL     1      10.992   6.913  17.606  1.00  0.00    -0.248 OA
ENDROOT
BRANCH   1   3
ATOM      3  O   UNL     1      10.370   9.093  17.143  1.00  0.00    -0.454 OA
BRANCH   3   4
ATOM      4  C   UNL     1       9.876  10.065  18.072  1.00  0.00     0.231 C 
ATOM      5  C   UNL     1      10.543  13.153  18.907  1.00  0.00     0.334 C 
ATOM      6  N   UNL     1       9.309  12.515  18.386  1.00  0.00    -0.325 N 
ATOM      7  C   UNL     1       8.526  13.557  17.680  1.00  0.00     0.334 C 
ATOM      8  C   UNL     1       8.509  11.994  19.545  1.00  0.00     0.263 C 
ATOM      9  C   UNL     1       9.679  11.443  17.402  1.00  0.00     0.309 C 
ATOM     10  C   UNL     1       7.678  10.753  19.184  1.00  0.00     0.065 C 
ATOM     11  C   UNL     1       8.591   9.584  18.786  1.00  0.00     0.057 C 
ENDBRANCH   3   4
ENDBRANCH   1   3
BRANCH   1  12
ATOM     12  C   UNL     1      12.785   8.535  17.599  1.00  0.00     0.213 C 
BRANCH  12  13
ATOM     13  O   UNL     1      13.574   7.572  16.938  1.00  0.00    -0.370 OA
ATOM     14  H   UNL     1      14.525   7.859  16.990  1.00  0.00     0.213 HD
ENDBRANCH  12  13
BRANCH  12  15
ATOM     15  C   UNL     1      13.061   9.937  17.040  1.00  0.00    -0.001 A 
ATOM     16  C   UNL     1      13.628  10.944  17.855  1.00  0.00     0.008 A 
ATOM     17  C   UNL     1      12.642  10.287  15.738  1.00  0.00     0.008 A 
ATOM     18  C   UNL     1      13.812  12.239  17.363  1.00  0.00     0.000 A 
ATOM     19  C   UNL     1      12.832  11.583  15.251  1.00  0.00     0.000 A 
ATOM     20  C   UNL     1      13.419  12.555  16.060  1.00  0.00     0.000 A 
ENDBRANCH  12  15
BRANCH  12  21
ATOM     21  C   UNL     1      13.172   8.554  19.077  1.00  0.00    -0.001 A 
ATOM     22  C   UNL     1      14.071   7.606  19.617  1.00  0.00     0.008 A 
ATOM     23  C   UNL     1      12.528   9.442  19.964  1.00  0.00     0.008 A 
ATOM     24  C   UNL     1      14.357   7.590  20.984  1.00  0.00     0.000 A 
ATOM     25  C   UNL     1      12.819   9.424  21.333  1.00  0.00     0.000 A 
ATOM     26  C   UNL     1      13.738   8.504  21.841  1.00  0.00     0.000 A 
ENDBRANCH  12  21
ENDBRANCH   1  12
TORSDOF 6
ENDMDL
MODEL 10
REMARK VINA RESULT:    -8.136      2.702      6.311
REMARK INTER + INTRA:         -11.532
REMARK INTER:                 -10.811
REMARK INTRA:                  -0.720
REMARK UNBOUND:                -0.779
REMARK SMILES C[N+]1(C)CCCC(OC(=O)C(O)(c2ccccc2)c2ccccc2)C1
REMARK SMILES IDX 9 1 10 2 8 3 7 4 1 5 2 6 3 7 4 8 25 9 5 10 6 11 11 12 12 13
REMARK SMILES IDX 13 15 14 16 18 17 15 18 17 19 16 20 19 21 20 22 24 23 21 24
REMARK SMILES IDX 23 25 22 26
REMARK H PARENT 12 14
REMARK Flexibility Score: inf
ROOT
ATOM      1  C   UNL     1      11.819   9.393  16.341  1.00  0.00     0.348 C 
ATOM      2  O   UNL     1      12.089   8.654  15.358  1.00  0.00    -0.248 OA
ENDROOT
BRANCH   1   3
ATOM      3  O   UNL     1      12.063  10.774  16.283  1.00  0.00    -0.454 OA
BRANCH   3   4
ATOM      4  C   UNL     1      13.291  11.423  16.635  1.00  0.00     0.231 C 
ATOM      5  C   UNL     1      14.357  14.482  17.071  1.00  0.00     0.334 C 
ATOM      6  N   UNL     1      14.312  13.311  17.982  1.00  0.00    -0.325 N 
ATOM      7  C   UNL     1      14.248  13.824  19.372  1.00  0.00     0.334 C 
ATOM      8  C   UNL     1      15.571  12.513  17.806  1.00  0.00     0.263 C 
ATOM      9  C   UNL     1      13.070  12.513  17.707  1.00  0.00     0.309 C 
ATOM     10  C   UNL     1      15.366  11.013  18.071  1.00  0.00     0.065 C 
ATOM     11  C   UNL     1      14.381  10.411  17.058  1.00  0.00     0.057 C 
ENDBRANCH   3   4
ENDBRANCH   1   3
BRANCH   1  12
ATOM     12  C   UNL     1      11.118   8.821  17.565  1.00  0.00     0.213 C 
BRANCH  12  13
ATOM     13  O   UNL     1      10.620   7.556  17.193  1.00  0.00    -0.370 OA
ATOM     14  H   UNL     1      11.314   7.097  16.646  1.00  0.00     0.213 HD
ENDBRANCH  12  13
BRANCH  12  15
ATOM     15  C   UNL     1      12.053   8.701  18.776  1.00  0.00    -0.001 A 
ATOM     16  C   UNL     1      12.101   9.715  19.759  1.00  0.00     0.008 A 
ATOM     17  C   UNL     1      12.973   7.633  18.869  1.00  0.00     0.008 A 
ATOM     18  C   UNL     1      13.004   9.636  20.822  1.00  0.00     0.000 A 
ATOM     19  C   UNL     1      13.872   7.558  19.936  1.00  0.00     0.000 A 
ATOM     20  C   UNL     1      13.885   8.554  20.913  1.00  0.00     0.000 A 
ENDBRANCH  12  15
BRANCH  12  21
ATOM     21  C   UNL     1       9.943   9.702  17.989  1.00  0.00    -0.001 A 
ATOM     22  C   UNL     1       9.687  10.943  17.361  1.00  0.00     0.008 A 
ATOM     23  C   UNL     1       9.170   9.355  19.117  1.00  0.00     0.008 A 
ATOM     24  C   UNL     1       8.656  11.771  17.809  1.00  0.00     0.000 A 
ATOM     25  C   UNL     1       8.137  10.187  19.561  1.00  0.00     0.000 A 
ATOM     26  C   UNL     1       7.875  11.391  18.904  1.00  0.00     0.000 A 
ENDBRANCH  12  21
ENDBRANCH   1  12
TORSDOF 6
ENDMDL
MODEL 11
REMARK VINA RESULT:    -8.116      2.510      3.524
REMARK INTER + INTRA:         -11.505
REMARK INTER:                 -10.820
REMARK INTRA:                  -0.685
REMARK UNBOUND:                -0.779
REMARK SMILES C[N+]1(C)CCCC(OC(=O)C(O)(c2ccccc2)c2ccccc2)C1
REMARK SMILES IDX 9 1 10 2 8 3 7 4 1 5 2 6 3 7 4 8 25 9 5 10 6 11 11 12 12 13
REMARK SMILES IDX 13 15 14 16 18 17 15 18 17 19 16 20 19 21 20 22 24 23 21 24
REMARK SMILES IDX 23 25 22 26
REMARK H PARENT 12 14
REMARK Flexibility Score: inf
ROOT
ATOM      1  C   UNL     1      10.495  12.418  15.728  1.00  0.00     0.348 C 
ATOM      2  O   UNL     1      10.407  11.984  16.907  1.00  0.00    -0.248 OA
ENDROOT
BRANCH   1   3
ATOM      3  O   UNL     1       9.635  13.430  15.275  1.00  0.00    -0.454 OA
BRANCH   3   4
ATOM      4  C   UNL     1       8.653  14.111  16.066  1.00  0.00     0.231 C 
ATOM      5  C   UNL     1       8.453  15.412  19.057  1.00  0.00     0.334 C 
ATOM      6  N   UNL     1       8.282  16.005  17.708  1.00  0.00    -0.325 N 
ATOM      7  C   UNL     1       8.605  17.449  17.806  1.00  0.00     0.334 C 
ATOM      8  C   UNL     1       6.849  15.846  17.289  1.00  0.00     0.263 C 
ATOM      9  C   UNL     1       9.246  15.361  16.753  1.00  0.00     0.309 C 
ATOM     10  C   UNL     1       6.686  15.717  15.766  1.00  0.00     0.065 C 
ATOM     11  C   UNL     1       7.385  14.450  15.249  1.00  0.00     0.057 C 
ENDBRANCH   3   4
ENDBRANCH   1   3
BRANCH   1  12
ATOM     12  C   UNL     1      11.612  11.937  14.811  1.00  0.00     0.213 C 
BRANCH  12  13
ATOM     13  O   UNL     1      10.992  11.272  13.734  1.00  0.00    -0.370 OA
ATOM     14  H   UNL     1      11.684  11.084  13.045  1.00  0.00     0.213 HD
ENDBRANCH  12  13
BRANCH  12  15
ATOM     15  C   UNL     1      12.492  13.087  14.304  1.00  0.00    -0.001 A 
ATOM     16  C   UNL     1      12.844  14.160  15.153  1.00  0.00     0.008 A 
ATOM     17  C   UNL     1      12.868  13.157  12.944  1.00  0.00     0.008 A 
ATOM     18  C   UNL     1      13.587  15.240  14.668  1.00  0.00     0.000 A 
ATOM     19  C   UNL     1      13.614  14.238  12.466  1.00  0.00     0.000 A 
ATOM     20  C   UNL     1      13.976  15.275  13.326  1.00  0.00     0.000 A 
ENDBRANCH  12  15
BRANCH  12  21
ATOM     21  C   UNL     1      12.530  10.951  15.532  1.00  0.00    -0.001 A 
ATOM     22  C   UNL     1      13.497  11.390  16.465  1.00  0.00     0.008 A 
ATOM     23  C   UNL     1      12.522   9.586  15.173  1.00  0.00     0.008 A 
ATOM     24  C   UNL     1      14.379  10.485  17.060  1.00  0.00     0.000 A 
ATOM     25  C   UNL     1      13.406   8.682  15.773  1.00  0.00     0.000 A 
ATOM     26  C   UNL     1      14.329   9.130  16.721  1.00  0.00     0.000 A 
ENDBRANCH  12  21
ENDBRANCH   1  12
TORSDOF 6
ENDMDL
MODEL 12
REMARK VINA RESULT:    -8.113      2.909      4.611
REMARK INTER + INTRA:         -11.501
REMARK INTER:                 -10.496
REMARK INTRA:                  -1.005
REMARK UNBOUND:                -0.779
REMARK SMILES C[N+]1(C)CCCC(OC(=O)C(O)(c2ccccc2)c2ccccc2)C1
REMARK SMILES IDX 9 1 10 2 8 3 7 4 1 5 2 6 3 7 4 8 25 9 5 10 6 11 11 12 12 13
REMARK SMILES IDX 13 15 14 16 18 17 15 18 17 19 16 20 19 21 20 22 24 23 21 24
REMARK SMILES IDX 23 25 22 26
REMARK H PARENT 12 14
REMARK Flexibility Score: inf
ROOT
ATOM      1  C   UNL     1      13.326  10.251  19.300  1.00  0.00     0.348 C 
ATOM      2  O   UNL     1      13.433   9.171  19.938  1.00  0.00    -0.248 OA
ENDROOT
BRANCH   1   3
ATOM      3  O   UNL     1      12.340  11.188  19.643  1.00  0.00    -0.454 OA
BRANCH   3   4
ATOM      4  C   UNL     1      10.958  11.124  19.271  1.00  0.00     0.231 C 
ATOM      5  C   UNL     1       8.403  13.159  19.140  1.00  0.00     0.334 C 
ATOM      6  N   UNL     1       9.081  12.355  18.094  1.00  0.00    -0.325 N 
ATOM      7  C   UNL     1       8.862  13.033  16.793  1.00  0.00     0.334 C 
ATOM      8  C   UNL     1       8.456  10.990  18.052  1.00  0.00     0.263 C 
ATOM      9  C   UNL     1      10.556  12.315  18.372  1.00  0.00     0.309 C 
ATOM     10  C   UNL     1       9.444   9.897  17.614  1.00  0.00     0.065 C 
ATOM     11  C   UNL     1      10.594   9.767  18.625  1.00  0.00     0.057 C 
ENDBRANCH   3   4
ENDBRANCH   1   3
BRANCH   1  12
ATOM     12  C   UNL     1      14.338  10.611  18.220  1.00  0.00     0.213 C 
BRANCH  12  13
ATOM     13  O   UNL     1      15.062   9.435  17.936  1.00  0.00    -0.370 OA
ATOM     14  H   UNL     1      15.086   8.878  18.760  1.00  0.00     0.213 HD
ENDBRANCH  12  13
BRANCH  12  15
ATOM     15  C   UNL     1      13.673  11.158  16.950  1.00  0.00    -0.001 A 
ATOM     16  C   UNL     1      13.578  12.549  16.724  1.00  0.00     0.008 A 
ATOM     17  C   UNL     1      13.035  10.285  16.042  1.00  0.00     0.008 A 
ATOM     18  C   UNL     1      12.909  13.045  15.601  1.00  0.00     0.000 A 
ATOM     19  C   UNL     1      12.370  10.787  14.919  1.00  0.00     0.000 A 
ATOM     20  C   UNL     1      12.311  12.163  14.696  1.00  0.00     0.000 A 
ENDBRANCH  12  15
BRANCH  12  21
ATOM     21  C   UNL     1      15.313  11.679  18.714  1.00  0.00    -0.001 A 
ATOM     22  C   UNL     1      16.441  12.058  17.951  1.00  0.00     0.008 A 
ATOM     23  C   UNL     1      15.180  12.210  20.014  1.00  0.00     0.008 A 
ATOM     24  C   UNL     1      17.364  12.980  18.449  1.00  0.00     0.000 A 
ATOM     25  C   UNL     1      16.105  13.136  20.508  1.00  0.00     0.000 A 
ATOM     26  C   UNL     1      17.193  13.526  19.723  1.00  0.00     0.000 A 
ENDBRANCH  12  21
ENDBRANCH   1  12
TORSDOF 6
ENDMDL
MODEL 13
REMARK VINA RESULT:    -8.072     11.336     14.585
REMARK INTER + INTRA:         -11.447
REMARK INTER:                 -10.296
REMARK INTRA:                  -1.151
REMARK UNBOUND:                -0.779
REMARK SMILES C[N+]1(C)CCCC(OC(=O)C(O)(c2ccccc2)c2ccccc2)C1
REMARK SMILES IDX 9 1 10 2 8 3 7 4 1 5 2 6 3 7 4 8 25 9 5 10 6 11 11 12 12 13
REMARK SMILES IDX 13 15 14 16 18 17 15 18 17 19 16 20 19 21 20 22 24 23 21 24
REMARK SMILES IDX 23 25 22 26
REMARK H PARENT 12 14
REMARK Flexibility Score: inf
ROOT
ATOM      1  C   UNL     1      17.944  13.218   3.709  1.00  0.00     0.348 C 
ATOM      2  O   UNL     1      18.868  12.443   3.349  1.00  0.00    -0.248 OA
ENDROOT
BRANCH   1   3
ATOM      3  O   UNL     1      18.189  14.590   3.879  1.00  0.00    -0.454 OA
BRANCH   3   4
ATOM      4  C   UNL     1      18.986  15.175   4.916  1.00  0.00     0.231 C 
ATOM      5  C   UNL     1      21.992  14.801   6.143  1.00  0.00     0.334 C 
ATOM      6  N   UNL     1      21.314  15.968   5.527  1.00  0.00    -0.325 N 
ATOM      7  C   UNL     1      22.362  16.842   4.945  1.00  0.00     0.334 C 
ATOM      8  C   UNL     1      20.580  16.721   6.597  1.00  0.00     0.263 C 
ATOM      9  C   UNL     1      20.414  15.496   4.421  1.00  0.00     0.309 C 
ATOM     10  C   UNL     1      19.324  17.432   6.070  1.00  0.00     0.065 C 
ATOM     11  C   UNL     1      18.303  16.413   5.543  1.00  0.00     0.057 C 
ENDBRANCH   3   4
ENDBRANCH   1   3
BRANCH   1  12
ATOM     12  C   UNL     1      16.518  12.703   3.853  1.00  0.00     0.213 C 
BRANCH  12  13
ATOM     13  O   UNL     1      16.605  11.444   4.481  1.00  0.00    -0.370 OA
ATOM     14  H   UNL     1      17.309  11.494   5.182  1.00  0.00     0.213 HD
ENDBRANCH  12  13
BRANCH  12  15
ATOM     15  C   UNL     1      15.629  13.654   4.665  1.00  0.00    -0.001 A 
ATOM     16  C   UNL     1      15.057  14.799   4.067  1.00  0.00     0.008 A 
ATOM     17  C   UNL     1      15.463  13.470   6.055  1.00  0.00     0.008 A 
ATOM     18  C   UNL     1      14.306  15.700   4.826  1.00  0.00     0.000 A 
ATOM     19  C   UNL     1      14.708  14.373   6.809  1.00  0.00     0.000 A 
ATOM     20  C   UNL     1      14.127  15.483   6.195  1.00  0.00     0.000 A 
ENDBRANCH  12  15
BRANCH  12  21
ATOM     21  C   UNL     1      15.857  12.523   2.487  1.00  0.00    -0.001 A 
ATOM     22  C   UNL     1      14.916  11.495   2.252  1.00  0.00     0.008 A 
ATOM     23  C   UNL     1      16.281  13.301   1.389  1.00  0.00     0.008 A 
ATOM     24  C   UNL     1      14.377  11.297   0.979  1.00  0.00     0.000 A 
ATOM     25  C   UNL     1      15.737  13.101   0.116  1.00  0.00     0.000 A 
ATOM     26  C   UNL     1      14.780  12.104  -0.088  1.00  0.00     0.000 A 
ENDBRANCH  12  21
ENDBRANCH   1  12
TORSDOF 6
ENDMDL
MODEL 14
REMARK VINA RESULT:    -8.023      2.533      6.522
REMARK INTER + INTRA:         -11.382
REMARK INTER:                 -10.454
REMARK INTRA:                  -0.928
REMARK UNBOUND:                -0.779
REMARK SMILES C[N+]1(C)CCCC(OC(=O)C(O)(c2ccccc2)c2ccccc2)C1
REMARK SMILES IDX 9 1 10 2 8 3 7 4 1 5 2 6 3 7 4 8 25 9 5 10 6 11 11 12 12 13
REMARK SMILES IDX 13 15 14 16 18 17 15 18 17 19 16 20 19 21 20 22 24 23 21 24
REMARK SMILES IDX 23 25 22 26
REMARK H PARENT 12 14
REMARK Flexibility Score: inf
ROOT
ATOM      1  C   UNL     1      10.553  13.226  15.526  1.00  0.00     0.348 C 
ATOM      2  O   UNL     1       9.315  13.398  15.372  1.00  0.00    -0.248 OA
ENDROOT
BRANCH   1   3
ATOM      3  O   UNL     1      11.469  13.786  14.622  1.00  0.00    -0.454 OA
BRANCH   3   4
ATOM      4  C   UNL     1      11.514  13.536  13.212  1.00  0.00     0.231 C 
ATOM      5  C   UNL     1       9.646  14.143  10.600  1.00  0.00     0.334 C 
ATOM      6  N   UNL     1      11.042  14.525  10.927  1.00  0.00    -0.325 N 
ATOM      7  C   UNL     1      11.353  15.772  10.188  1.00  0.00     0.334 C 
ATOM      8  C   UNL     1      11.963  13.433  10.465  1.00  0.00     0.263 C 
ATOM      9  C   UNL     1      11.152  14.799  12.400  1.00  0.00     0.309 C 
ATOM     10  C   UNL     1      13.229  13.317  11.328  1.00  0.00     0.065 C 
ATOM     11  C   UNL     1      12.870  12.937  12.773  1.00  0.00     0.057 C 
ENDBRANCH   3   4
ENDBRANCH   1   3
BRANCH   1  12
ATOM     12  C   UNL     1      11.083  12.506  16.759  1.00  0.00     0.213 C 
BRANCH  12  13
ATOM     13  O   UNL     1      11.826  13.453  17.493  1.00  0.00    -0.370 OA
ATOM     14  H   UNL     1      12.436  12.962  18.106  1.00  0.00     0.213 HD
ENDBRANCH  12  13
BRANCH  12  15
ATOM     15  C   UNL     1       9.961  11.912  17.621  1.00  0.00    -0.001 A 
ATOM     16  C   UNL     1       9.417  12.637  18.704  1.00  0.00     0.008 A 
ATOM     17  C   UNL     1       9.534  10.580  17.424  1.00  0.00     0.008 A 
ATOM     18  C   UNL     1       8.445  12.065  19.529  1.00  0.00     0.000 A 
ATOM     19  C   UNL     1       8.560  10.014  18.251  1.00  0.00     0.000 A 
ATOM     20  C   UNL     1       8.013  10.756  19.298  1.00  0.00     0.000 A 
ENDBRANCH  12  15
BRANCH  12  21
ATOM     21  C   UNL     1      12.009  11.354  16.369  1.00  0.00    -0.001 A 
ATOM     22  C   UNL     1      11.661  10.442  15.347  1.00  0.00     0.008 A 
ATOM     23  C   UNL     1      13.174  11.098  17.122  1.00  0.00     0.008 A 
ATOM     24  C   UNL     1      12.482   9.351  15.053  1.00  0.00     0.000 A 
ATOM     25  C   UNL     1      13.995  10.006  16.823  1.00  0.00     0.000 A 
ATOM     26  C   UNL     1      13.653   9.137  15.784  1.00  0.00     0.000 A 
ENDBRANCH  12  21
ENDBRANCH   1  12
TORSDOF 6
ENDMDL
MODEL 15
REMARK VINA RESULT:    -7.994      2.509      6.092
REMARK INTER + INTRA:         -11.343
REMARK INTER:                 -10.264
REMARK INTRA:                  -1.079
REMARK UNBOUND:                -0.779
REMARK SMILES C[N+]1(C)CCCC(OC(=O)C(O)(c2ccccc2)c2ccccc2)C1
REMARK SMILES IDX 9 1 10 2 8 3 7 4 1 5 2 6 3 7 4 8 25 9 5 10 6 11 11 12 12 13
REMARK SMILES IDX 13 15 14 16 18 17 15 18 17 19 16 20 19 21 20 22 24 23 21 24
REMARK SMILES IDX 23 25 22 26
REMARK H PARENT 12 14
REMARK Flexibility Score: inf
ROOT
ATOM      1  C   UNL     1      11.830   9.914  15.335  1.00  0.00     0.348 C 
ATOM      2  O   UNL     1      12.385   9.034  14.627  1.00  0.00    -0.248 OA
ENDROOT
BRANCH   1   3
ATOM      3  O   UNL     1      11.241  11.041  14.740  1.00  0.00    -0.454 OA
BRANCH   3   4
ATOM      4  C   UNL     1      11.926  12.034  13.967  1.00  0.00     0.231 C 
ATOM      5  C   UNL     1      11.978  13.055  10.863  1.00  0.00     0.334 C 
ATOM      6  N   UNL     1      11.663  13.760  12.130  1.00  0.00    -0.325 N 
ATOM      7  C   UNL     1      10.753  14.885  11.806  1.00  0.00     0.334 C 
ATOM      8  C   UNL     1      12.937  14.305  12.709  1.00  0.00     0.263 C 
ATOM      9  C   UNL     1      10.953  12.820  13.061  1.00  0.00     0.309 C 
ATOM     10  C   UNL     1      12.909  14.379  14.244  1.00  0.00     0.065 C 
ATOM     11  C   UNL     1      12.774  12.975  14.854  1.00  0.00     0.057 C 
ENDBRANCH   3   4
ENDBRANCH   1   3
BRANCH   1  12
ATOM     12  C   UNL     1      11.685   9.715  16.838  1.00  0.00     0.213 C 
BRANCH  12  13
ATOM     13  O   UNL     1      11.423   8.345  17.041  1.00  0.00    -0.370 OA
ATOM     14  H   UNL     1      11.072   8.230  17.965  1.00  0.00     0.213 HD
ENDBRANCH  12  13
BRANCH  12  15
ATOM     15  C   UNL     1      12.937  10.149  17.611  1.00  0.00    -0.001 A 
ATOM     16  C   UNL     1      12.994  10.040  19.019  1.00  0.00     0.008 A 
ATOM     17  C   UNL     1      14.010  10.780  16.944  1.00  0.00     0.008 A 
ATOM     18  C   UNL     1      14.108  10.501  19.726  1.00  0.00     0.000 A 
ATOM     19  C   UNL     1      15.122  11.236  17.656  1.00  0.00     0.000 A 
ATOM     20  C   UNL     1      15.174  11.093  19.043  1.00  0.00     0.000 A 
ENDBRANCH  12  15
BRANCH  12  21
ATOM     21  C   UNL     1      10.512  10.525  17.389  1.00  0.00    -0.001 A 
ATOM     22  C   UNL     1      10.624  11.912  17.639  1.00  0.00     0.008 A 
ATOM     23  C   UNL     1       9.329   9.869  17.793  1.00  0.00     0.008 A 
ATOM     24  C   UNL     1       9.568  12.623  18.214  1.00  0.00     0.000 A 
ATOM     25  C   UNL     1       8.272  10.586  18.366  1.00  0.00     0.000 A 
ATOM     26  C   UNL     1       8.389  11.963  18.570  1.00  0.00     0.000 A 
ENDBRANCH  12  21
ENDBRANCH   1  12
TORSDOF 6
ENDMDL
