MODEL 1
REMARK VINA RESULT:    -7.605      0.000      0.000
REMARK INTER + INTRA:         -12.619
REMARK INTER:                 -11.385
REMARK INTRA:                  -1.234
REMARK UNBOUND:                -1.234
REMARK SMILES O=C(O)CCCN1CCC(OC(c2ccc(Cl)cc2)c2ccccn2)CC1
REMARK SMILES IDX 6 1 5 2 4 3 2 4 1 5 3 6 7 8 8 9 27 10 9 11 26 12 10 13 11 14
REMARK SMILES IDX 12 15 13 16 14 17 19 18 15 19 18 20 16 21 17 22 20 23 21 24
REMARK SMILES IDX 25 25 22 26 24 27 23 28
REMARK H PARENT 3 7
REMARK Flexibility Score: inf
ROOT
ATOM      1  C   UNL     1      13.334   7.678  19.099  1.00  0.00     0.085 C 
ENDROOT
BRANCH   1   2
ATOM      2  C   UNL     1      13.993   8.318  20.346  1.00  0.00     0.027 C 
BRANCH   2   3
ATOM      3  C   UNL     1      14.576   7.330  21.365  1.00  0.00     0.124 C 
BRANCH   3   4
ATOM      4  C   UNL     1      13.660   7.110  22.531  1.00  0.00     0.303 C 
ATOM      5  O   UNL     1      13.252   5.948  22.805  1.00  0.00    -0.252 OA
BRANCH   4   6
ATOM      6  O   UNL     1      13.262   8.190  23.314  1.00  0.00    -0.481 OA
ATOM      7  H   UNL     1      12.280   8.389  23.463  1.00  0.00     0.296 HD
ENDBRANCH   4   6
ENDBRANCH   3   4
ENDBRANCH   2   3
ENDBRANCH   1   2
BRANCH   1   8
ATOM      8  N   UNL     1      13.175   8.552  17.911  1.00  0.00    -0.303 NA
ATOM      9  C   UNL     1      12.817   7.860  16.661  1.00  0.00     0.087 C 
ATOM     10  C   UNL     1      14.228   9.567  17.711  1.00  0.00     0.087 C 
ATOM     11  C   UNL     1      12.141   8.850  15.691  1.00  0.00     0.047 C 
ATOM     12  C   UNL     1      13.939  10.452  16.478  1.00  0.00     0.047 C 
ATOM     13  C   UNL     1      12.483  10.325  16.004  1.00  0.00     0.122 C 
BRANCH  13  14
ATOM     14  O   UNL     1      12.316  11.116  14.838  1.00  0.00    -0.364 OA
BRANCH  14  15
ATOM     15  C   UNL     1      12.568  12.488  15.097  1.00  0.00     0.197 C 
BRANCH  15  16
ATOM     16  C   UNL     1      12.812  13.232  13.796  1.00  0.00    -0.013 A 
ATOM     17  C   UNL     1      12.557  12.614  12.558  1.00  0.00     0.008 A 
ATOM     18  C   UNL     1      13.262  14.564  13.816  1.00  0.00     0.008 A 
ATOM     19  C   UNL     1      12.774  13.309  11.364  1.00  0.00     0.021 A 
ATOM     20  C   UNL     1      13.476  15.255  12.620  1.00  0.00     0.021 A 
ATOM     21  C   UNL     1      13.236  14.629  11.394  1.00  0.00     0.041 A 
ATOM     22  Cl  UNL     1      13.505  15.498   9.894  1.00  0.00    -0.084 Cl
ENDBRANCH  15  16
BRANCH  15  23
ATOM     23  C   UNL     1      11.392  13.056  15.855  1.00  0.00     0.074 A 
ATOM     24  C   UNL     1      10.116  13.044  15.266  1.00  0.00     0.027 A 
ATOM     25  N   UNL     1      11.544  13.578  17.109  1.00  0.00    -0.258 NA
ATOM     26  C   UNL     1       9.029  13.567  15.968  1.00  0.00     0.004 A 
ATOM     27  C   UNL     1      10.497  14.089  17.809  1.00  0.00     0.111 A 
ATOM     28  C   UNL     1       9.217  14.093  17.249  1.00  0.00     0.020 A 
ENDBRANCH  15  23
ENDBRANCH  14  15
ENDBRANCH  13  14
ENDBRANCH   1   8
TORSDOF 9
ENDMDL
MODEL 2
REMARK VINA RESULT:    -7.559      1.350      1.855
REMARK INTER + INTRA:         -12.549
REMARK INTER:                 -11.935
REMARK INTRA:                  -0.614
REMARK UNBOUND:                -1.234
REMARK SMILES O=C(O)CCCN1CCC(OC(c2ccc(Cl)cc2)c2ccccn2)CC1
REMARK SMILES IDX 6 1 5 2 4 3 2 4 1 5 3 6 7 8 8 9 27 10 9 11 26 12 10 13 11 14
REMARK SMILES IDX 12 15 13 16 14 17 19 18 15 19 18 20 16 21 17 22 20 23 21 24
REMARK SMILES IDX 25 25 22 26 24 27 23 28
REMARK H PARENT 3 7
REMARK Flexibility Score: inf
ROOT
ATOM      1  C   UNL     1      14.340   8.925  18.629  1.00  0.00     0.085 C 
ENDROOT
BRANCH   1   2
ATOM      2  C   UNL     1      13.441   8.240  19.688  1.00  0.00     0.027 C 
BRANCH   2   3
ATOM      3  C   UNL     1      14.184   7.440  20.767  1.00  0.00     0.124 C 
BRANCH   3   4
ATOM      4  C   UNL     1      13.984   8.012  22.137  1.00  0.00     0.303 C 
ATOM      5  O   UNL     1      13.257   7.411  22.974  1.00  0.00    -0.252 OA
BRANCH   4   6
ATOM      6  O   UNL     1      14.607   9.207  22.488  1.00  0.00    -0.481 OA
ATOM      7  H   UNL     1      15.177   9.711  21.819  1.00  0.00     0.296 HD
ENDBRANCH   4   6
ENDBRANCH   3   4
ENDBRANCH   2   3
ENDBRANCH   1   2
BRANCH   1   8
ATOM      8  N   UNL     1      13.646   9.578  17.493  1.00  0.00    -0.303 NA
ATOM      9  C   UNL     1      13.604   8.797  16.245  1.00  0.00     0.087 C 
ATOM     10  C   UNL     1      13.985  10.996  17.259  1.00  0.00     0.087 C 
ATOM     11  C   UNL     1      12.431   9.276  15.367  1.00  0.00     0.047 C 
ATOM     12  C   UNL     1      13.172  11.589  16.087  1.00  0.00     0.047 C 
ATOM     13  C   UNL     1      11.968  10.710  15.715  1.00  0.00     0.122 C 
BRANCH  13  14
ATOM     14  O   UNL     1      11.313  11.290  14.597  1.00  0.00    -0.364 OA
BRANCH  14  15
ATOM     15  C   UNL     1      11.499  12.696  14.553  1.00  0.00     0.197 C 
BRANCH  15  16
ATOM     16  C   UNL     1      12.054  13.110  13.203  1.00  0.00    -0.013 A 
ATOM     17  C   UNL     1      13.245  13.854  13.114  1.00  0.00     0.008 A 
ATOM     18  C   UNL     1      11.401  12.720  12.020  1.00  0.00     0.008 A 
ATOM     19  C   UNL     1      13.757  14.222  11.866  1.00  0.00     0.021 A 
ATOM     20  C   UNL     1      11.917  13.090  10.774  1.00  0.00     0.021 A 
ATOM     21  C   UNL     1      13.092  13.843  10.695  1.00  0.00     0.041 A 
ATOM     22  Cl  UNL     1      13.737  14.305   9.130  1.00  0.00    -0.084 Cl
ENDBRANCH  15  16
BRANCH  15  23
ATOM     23  C   UNL     1      10.176  13.363  14.845  1.00  0.00     0.074 A 
ATOM     24  C   UNL     1       9.508  13.082  16.049  1.00  0.00     0.027 A 
ATOM     25  N   UNL     1       9.617  14.241  13.959  1.00  0.00    -0.258 NA
ATOM     26  C   UNL     1       8.286  13.701  16.318  1.00  0.00     0.004 A 
ATOM     27  C   UNL     1       8.429  14.855  14.205  1.00  0.00     0.111 A 
ATOM     28  C   UNL     1       7.741  14.594  15.392  1.00  0.00     0.020 A 
ENDBRANCH  15  23
ENDBRANCH  14  15
ENDBRANCH  13  14
ENDBRANCH   1   8
TORSDOF 9
ENDMDL
MODEL 3
REMARK VINA RESULT:    -7.540      2.335      4.175
REMARK INTER + INTRA:         -12.521
REMARK INTER:                 -11.532
REMARK INTRA:                  -0.989
REMARK UNBOUND:                -1.234
REMARK SMILES O=C(O)CCCN1CCC(OC(c2ccc(Cl)cc2)c2ccccn2)CC1
REMARK SMILES IDX 6 1 5 2 4 3 2 4 1 5 3 6 7 8 8 9 27 10 9 11 26 12 10 13 11 14
REMARK SMILES IDX 12 15 13 16 14 17 19 18 15 19 18 20 16 21 17 22 20 23 21 24
REMARK SMILES IDX 25 25 22 26 24 27 23 28
REMARK H PARENT 3 7
REMARK Flexibility Score: inf
ROOT
ATOM      1  C   UNL     1      12.959   7.628  18.557  1.00  0.00     0.085 C 
ENDROOT
BRANCH   1   2
ATOM      2  C   UNL     1      14.033   7.598  19.672  1.00  0.00     0.027 C 
BRANCH   2   3
ATOM      3  C   UNL     1      13.546   8.003  21.069  1.00  0.00     0.124 C 
BRANCH   3   4
ATOM      4  C   UNL     1      14.102   7.118  22.144  1.00  0.00     0.303 C 
ATOM      5  O   UNL     1      15.350   7.026  22.305  1.00  0.00    -0.252 OA
BRANCH   4   6
ATOM      6  O   UNL     1      13.240   6.400  22.967  1.00  0.00    -0.481 OA
ATOM      7  H   UNL     1      12.241   6.572  22.949  1.00  0.00     0.296 HD
ENDBRANCH   4   6
ENDBRANCH   3   4
ENDBRANCH   2   3
ENDBRANCH   1   2
BRANCH   1   8
ATOM      8  N   UNL     1      13.036   8.752  17.593  1.00  0.00    -0.303 NA
ATOM      9  C   UNL     1      12.942   8.375  16.172  1.00  0.00     0.087 C 
ATOM     10  C   UNL     1      14.101   9.744  17.842  1.00  0.00     0.087 C 
ATOM     11  C   UNL     1      12.469   9.583  15.340  1.00  0.00     0.047 C 
ATOM     12  C   UNL     1      14.060  10.895  16.811  1.00  0.00     0.047 C 
ATOM     13  C   UNL     1      12.731  10.935  16.043  1.00  0.00     0.122 C 
BRANCH  13  14
ATOM     14  O   UNL     1      12.797  11.975  15.079  1.00  0.00    -0.364 OA
BRANCH  14  15
ATOM     15  C   UNL     1      11.569  12.121  14.383  1.00  0.00     0.197 C 
BRANCH  15  16
ATOM     16  C   UNL     1      10.611  12.983  15.185  1.00  0.00    -0.013 A 
ATOM     17  C   UNL     1      10.606  14.382  15.034  1.00  0.00     0.008 A 
ATOM     18  C   UNL     1       9.689  12.386  16.063  1.00  0.00     0.008 A 
ATOM     19  C   UNL     1       9.712  15.168  15.768  1.00  0.00     0.021 A 
ATOM     20  C   UNL     1       8.796  13.176  16.794  1.00  0.00     0.021 A 
ATOM     21  C   UNL     1       8.809  14.566  16.651  1.00  0.00     0.041 A 
ATOM     22  Cl  UNL     1       7.688  15.555  17.569  1.00  0.00    -0.084 Cl
ENDBRANCH  15  16
BRANCH  15  23
ATOM     23  C   UNL     1      11.857  12.717  13.025  1.00  0.00     0.074 A 
ATOM     24  C   UNL     1      13.138  13.223  12.748  1.00  0.00     0.027 A 
ATOM     25  N   UNL     1      10.893  12.769  12.058  1.00  0.00    -0.258 NA
ATOM     26  C   UNL     1      13.404  13.772  11.492  1.00  0.00     0.004 A 
ATOM     27  C   UNL     1      11.134  13.297  10.828  1.00  0.00     0.111 A 
ATOM     28  C   UNL     1      12.397  13.810  10.523  1.00  0.00     0.020 A 
ENDBRANCH  15  23
ENDBRANCH  14  15
ENDBRANCH  13  14
ENDBRANCH   1   8
TORSDOF 9
ENDMDL
MODEL 4
REMARK VINA RESULT:    -7.494      1.911      2.320
REMARK INTER + INTRA:         -12.453
REMARK INTER:                 -11.425
REMARK INTRA:                  -1.028
REMARK UNBOUND:                -1.234
REMARK SMILES O=C(O)CCCN1CCC(OC(c2ccc(Cl)cc2)c2ccccn2)CC1
REMARK SMILES IDX 6 1 5 2 4 3 2 4 1 5 3 6 7 8 8 9 27 10 9 11 26 12 10 13 11 14
REMARK SMILES IDX 12 15 13 16 14 17 19 18 15 19 18 20 16 21 17 22 20 23 21 24
REMARK SMILES IDX 25 25 22 26 24 27 23 28
REMARK H PARENT 3 7
REMARK Flexibility Score: inf
ROOT
ATOM      1  C   UNL     1      14.078   8.782  18.764  1.00  0.00     0.085 C 
ENDROOT
BRANCH   1   2
ATOM      2  C   UNL     1      13.148   8.488  19.966  1.00  0.00     0.027 C 
BRANCH   2   3
ATOM      3  C   UNL     1      12.755   9.707  20.811  1.00  0.00     0.124 C 
BRANCH   3   4
ATOM      4  C   UNL     1      11.428  10.275  20.406  1.00  0.00     0.303 C 
ATOM      5  O   UNL     1      10.375   9.901  20.989  1.00  0.00    -0.252 OA
BRANCH   4   6
ATOM      6  O   UNL     1      11.360  11.220  19.386  1.00  0.00    -0.481 OA
ATOM      7  H   UNL     1      12.026  11.983  19.340  1.00  0.00     0.296 HD
ENDBRANCH   4   6
ENDBRANCH   3   4
ENDBRANCH   2   3
ENDBRANCH   1   2
BRANCH   1   8
ATOM      8  N   UNL     1      13.455   9.436  17.588  1.00  0.00    -0.303 NA
ATOM      9  C   UNL     1      13.252   8.568  16.416  1.00  0.00     0.087 C 
ATOM     10  C   UNL     1      14.001  10.758  17.221  1.00  0.00     0.087 C 
ATOM     11  C   UNL     1      12.137   9.148  15.522  1.00  0.00     0.047 C 
ATOM     12  C   UNL     1      13.249  11.370  16.017  1.00  0.00     0.047 C 
ATOM     13  C   UNL     1      11.913  10.661  15.749  1.00  0.00     0.122 C 
BRANCH  13  14
ATOM     14  O   UNL     1      11.318  11.239  14.597  1.00  0.00    -0.364 OA
BRANCH  14  15
ATOM     15  C   UNL     1      11.512  12.644  14.557  1.00  0.00     0.197 C 
BRANCH  15  16
ATOM     16  C   UNL     1      12.056  13.060  13.202  1.00  0.00    -0.013 A 
ATOM     17  C   UNL     1      11.385  12.698  12.019  1.00  0.00     0.008 A 
ATOM     18  C   UNL     1      13.218  13.846  13.117  1.00  0.00     0.008 A 
ATOM     19  C   UNL     1      11.886  13.094  10.775  1.00  0.00     0.021 A 
ATOM     20  C   UNL     1      13.714  14.241  11.871  1.00  0.00     0.021 A 
ATOM     21  C   UNL     1      13.052  13.864  10.700  1.00  0.00     0.041 A 
ATOM     22  Cl  UNL     1      13.676  14.361   9.138  1.00  0.00    -0.084 Cl
ENDBRANCH  15  16
BRANCH  15  23
ATOM     23  C   UNL     1      10.196  13.318  14.865  1.00  0.00     0.074 A 
ATOM     24  C   UNL     1       9.534  13.028  16.070  1.00  0.00     0.027 A 
ATOM     25  N   UNL     1       9.639  14.210  13.993  1.00  0.00    -0.258 NA
ATOM     26  C   UNL     1       8.319  13.653  16.355  1.00  0.00     0.004 A 
ATOM     27  C   UNL     1       8.457  14.831  14.254  1.00  0.00     0.111 A 
ATOM     28  C   UNL     1       7.774  14.561  15.443  1.00  0.00     0.020 A 
ENDBRANCH  15  23
ENDBRANCH  14  15
ENDBRANCH  13  14
ENDBRANCH   1   8
TORSDOF 9
ENDMDL
MODEL 5
REMARK VINA RESULT:    -7.448      5.835      8.556
REMARK INTER + INTRA:         -12.384
REMARK INTER:                 -11.193
REMARK INTRA:                  -1.191
REMARK UNBOUND:                -1.234
REMARK SMILES O=C(O)CCCN1CCC(OC(c2ccc(Cl)cc2)c2ccccn2)CC1
REMARK SMILES IDX 6 1 5 2 4 3 2 4 1 5 3 6 7 8 8 9 27 10 9 11 26 12 10 13 11 14
REMARK SMILES IDX 12 15 13 16 14 17 19 18 15 19 18 20 16 21 17 22 20 23 21 24
REMARK SMILES IDX 25 25 22 26 24 27 23 28
REMARK H PARENT 3 7
REMARK Flexibility Score: inf
ROOT
ATOM      1  C   UNL     1      19.830  13.979  19.581  1.00  0.00     0.085 C 
ENDROOT
BRANCH   1   2
ATOM      2  C   UNL     1      20.927  12.891  19.487  1.00  0.00     0.027 C 
BRANCH   2   3
ATOM      3  C   UNL     1      20.625  11.730  18.531  1.00  0.00     0.124 C 
BRANCH   3   4
ATOM      4  C   UNL     1      21.695  11.551  17.497  1.00  0.00     0.303 C 
ATOM      5  O   UNL     1      22.173  12.555  16.901  1.00  0.00    -0.252 OA
BRANCH   4   6
ATOM      6  O   UNL     1      22.165  10.276  17.197  1.00  0.00    -0.481 OA
ATOM      7  H   UNL     1      21.811   9.463  17.689  1.00  0.00     0.296 HD
ENDBRANCH   4   6
ENDBRANCH   3   4
ENDBRANCH   2   3
ENDBRANCH   1   2
BRANCH   1   8
ATOM      8  N   UNL     1      18.427  13.521  19.437  1.00  0.00    -0.303 NA
ATOM      9  C   UNL     1      17.757  13.919  18.188  1.00  0.00     0.087 C 
ATOM     10  C   UNL     1      17.564  13.702  20.622  1.00  0.00     0.087 C 
ATOM     11  C   UNL     1      16.586  12.960  17.893  1.00  0.00     0.047 C 
ATOM     12  C   UNL     1      16.142  13.147  20.380  1.00  0.00     0.047 C 
ATOM     13  C   UNL     1      16.083  12.222  19.155  1.00  0.00     0.122 C 
BRANCH  13  14
ATOM     14  O   UNL     1      14.739  11.806  18.967  1.00  0.00    -0.364 OA
BRANCH  14  15
ATOM     15  C   UNL     1      14.615  10.394  19.035  1.00  0.00     0.197 C 
BRANCH  15  16
ATOM     16  C   UNL     1      14.103   9.978  20.402  1.00  0.00    -0.013 A 
ATOM     17  C   UNL     1      13.427  10.898  21.226  1.00  0.00     0.008 A 
ATOM     18  C   UNL     1      14.265   8.654  20.845  1.00  0.00     0.008 A 
ATOM     19  C   UNL     1      12.949  10.504  22.479  1.00  0.00     0.021 A 
ATOM     20  C   UNL     1      13.784   8.264  22.099  1.00  0.00     0.021 A 
ATOM     21  C   UNL     1      13.129   9.188  22.918  1.00  0.00     0.041 A 
ATOM     22  Cl  UNL     1      12.526   8.697  24.490  1.00  0.00    -0.084 Cl
ENDBRANCH  15  16
BRANCH  15  23
ATOM     23  C   UNL     1      13.692   9.941  17.929  1.00  0.00     0.074 A 
ATOM     24  C   UNL     1      14.236   9.447  16.730  1.00  0.00     0.027 A 
ATOM     25  N   UNL     1      12.335   9.997  18.074  1.00  0.00    -0.258 NA
ATOM     26  C   UNL     1      13.382   9.027  15.709  1.00  0.00     0.004 A 
ATOM     27  C   UNL     1      11.487   9.590  17.091  1.00  0.00     0.111 A 
ATOM     28  C   UNL     1      11.998   9.097  15.888  1.00  0.00     0.020 A 
ENDBRANCH  15  23
ENDBRANCH  14  15
ENDBRANCH  13  14
ENDBRANCH   1   8
TORSDOF 9
ENDMDL
MODEL 6
REMARK VINA RESULT:    -7.433      3.967      8.064
REMARK INTER + INTRA:         -12.362
REMARK INTER:                 -11.151
REMARK INTRA:                  -1.210
REMARK UNBOUND:                -1.234
REMARK SMILES O=C(O)CCCN1CCC(OC(c2ccc(Cl)cc2)c2ccccn2)CC1
REMARK SMILES IDX 6 1 5 2 4 3 2 4 1 5 3 6 7 8 8 9 27 10 9 11 26 12 10 13 11 14
REMARK SMILES IDX 12 15 13 16 14 17 19 18 15 19 18 20 16 21 17 22 20 23 21 24
REMARK SMILES IDX 25 25 22 26 24 27 23 28
REMARK H PARENT 3 7
REMARK Flexibility Score: inf
ROOT
ATOM      1  C   UNL     1       7.025  16.775  16.135  1.00  0.00     0.085 C 
ENDROOT
BRANCH   1   2
ATOM      2  C   UNL     1       5.661  16.043  16.116  1.00  0.00     0.027 C 
BRANCH   2   3
ATOM      3  C   UNL     1       4.481  16.829  16.704  1.00  0.00     0.124 C 
BRANCH   3   4
ATOM      4  C   UNL     1       3.303  16.863  15.778  1.00  0.00     0.303 C 
ATOM      5  O   UNL     1       3.480  16.846  14.529  1.00  0.00    -0.252 OA
BRANCH   4   6
ATOM      6  O   UNL     1       2.013  16.909  16.297  1.00  0.00    -0.481 OA
ATOM      7  H   UNL     1       1.242  17.261  15.742  1.00  0.00     0.296 HD
ENDBRANCH   4   6
ENDBRANCH   3   4
ENDBRANCH   2   3
ENDBRANCH   1   2
BRANCH   1   8
ATOM      8  N   UNL     1       8.237  15.920  16.133  1.00  0.00    -0.303 NA
ATOM      9  C   UNL     1       8.007  14.497  16.431  1.00  0.00     0.087 C 
ATOM     10  C   UNL     1       9.410  16.463  16.847  1.00  0.00     0.087 C 
ATOM     11  C   UNL     1       9.161  13.649  15.860  1.00  0.00     0.047 C 
ATOM     12  C   UNL     1      10.628  15.518  16.741  1.00  0.00     0.047 C 
ATOM     13  C   UNL     1      10.451  14.470  15.631  1.00  0.00     0.122 C 
BRANCH  13  14
ATOM     14  O   UNL     1      11.579  13.608  15.639  1.00  0.00    -0.364 OA
BRANCH  14  15
ATOM     15  C   UNL     1      11.426  12.539  14.719  1.00  0.00     0.197 C 
BRANCH  15  16
ATOM     16  C   UNL     1      11.915  12.956  13.344  1.00  0.00    -0.013 A 
ATOM     17  C   UNL     1      11.098  12.787  12.211  1.00  0.00     0.008 A 
ATOM     18  C   UNL     1      13.180  13.552  13.194  1.00  0.00     0.008 A 
ATOM     19  C   UNL     1      11.551  13.185  10.949  1.00  0.00     0.021 A 
ATOM     20  C   UNL     1      13.628  13.948  11.930  1.00  0.00     0.021 A 
ATOM     21  C   UNL     1      12.817  13.763  10.807  1.00  0.00     0.041 A 
ATOM     22  Cl  UNL     1      13.382  14.261   9.223  1.00  0.00    -0.084 Cl
ENDBRANCH  15  16
BRANCH  15  23
ATOM     23  C   UNL     1      12.184  11.343  15.246  1.00  0.00     0.074 A 
ATOM     24  C   UNL     1      13.273  11.539  16.112  1.00  0.00     0.027 A 
ATOM     25  N   UNL     1      11.826  10.071  14.899  1.00  0.00    -0.258 NA
ATOM     26  C   UNL     1      13.972  10.433  16.599  1.00  0.00     0.004 A 
ATOM     27  C   UNL     1      12.492   8.982  15.366  1.00  0.00     0.111 A 
ATOM     28  C   UNL     1      13.581   9.144  16.226  1.00  0.00     0.020 A 
ENDBRANCH  15  23
ENDBRANCH  14  15
ENDBRANCH  13  14
ENDBRANCH   1   8
TORSDOF 9
ENDMDL
MODEL 7
REMARK VINA RESULT:    -7.404      2.262      2.933
REMARK INTER + INTRA:         -12.318
REMARK INTER:                 -10.752
REMARK INTRA:                  -1.565
REMARK UNBOUND:                -1.234
REMARK SMILES O=C(O)CCCN1CCC(OC(c2ccc(Cl)cc2)c2ccccn2)CC1
REMARK SMILES IDX 6 1 5 2 4 3 2 4 1 5 3 6 7 8 8 9 27 10 9 11 26 12 10 13 11 14
REMARK SMILES IDX 12 15 13 16 14 17 19 18 15 19 18 20 16 21 17 22 20 23 21 24
REMARK SMILES IDX 25 25 22 26 24 27 23 28
REMARK H PARENT 3 7
REMARK Flexibility Score: inf
ROOT
ATOM      1  C   UNL     1      12.404   7.685  18.819  1.00  0.00     0.085 C 
ENDROOT
BRANCH   1   2
ATOM      2  C   UNL     1      13.715   8.011  19.576  1.00  0.00     0.027 C 
BRANCH   2   3
ATOM      3  C   UNL     1      13.895   9.479  19.983  1.00  0.00     0.124 C 
BRANCH   3   4
ATOM      4  C   UNL     1      14.761  10.234  19.020  1.00  0.00     0.303 C 
ATOM      5  O   UNL     1      15.234  11.358  19.341  1.00  0.00    -0.252 OA
BRANCH   4   6
ATOM      6  O   UNL     1      15.047   9.690  17.771  1.00  0.00    -0.481 OA
ATOM      7  H   UNL     1      15.124  10.283  16.952  1.00  0.00     0.296 HD
ENDBRANCH   4   6
ENDBRANCH   3   4
ENDBRANCH   2   3
ENDBRANCH   1   2
BRANCH   1   8
ATOM      8  N   UNL     1      12.063   8.563  17.674  1.00  0.00    -0.303 NA
ATOM      9  C   UNL     1      10.698   9.116  17.685  1.00  0.00     0.087 C 
ATOM     10  C   UNL     1      12.458   8.067  16.340  1.00  0.00     0.087 C 
ATOM     11  C   UNL     1      10.645  10.396  16.828  1.00  0.00     0.047 C 
ATOM     12  C   UNL     1      12.101   9.078  15.228  1.00  0.00     0.047 C 
ATOM     13  C   UNL     1      11.791  10.472  15.792  1.00  0.00     0.122 C 
BRANCH  13  14
ATOM     14  O   UNL     1      11.415  11.321  14.719  1.00  0.00    -0.364 OA
BRANCH  14  15
ATOM     15  C   UNL     1      12.423  12.278  14.431  1.00  0.00     0.197 C 
BRANCH  15  16
ATOM     16  C   UNL     1      12.222  12.850  13.040  1.00  0.00    -0.013 A 
ATOM     17  C   UNL     1      13.301  13.413  12.333  1.00  0.00     0.008 A 
ATOM     18  C   UNL     1      10.959  12.787  12.425  1.00  0.00     0.008 A 
ATOM     19  C   UNL     1      13.110  13.928  11.047  1.00  0.00     0.021 A 
ATOM     20  C   UNL     1      10.773  13.302  11.139  1.00  0.00     0.021 A 
ATOM     21  C   UNL     1      11.846  13.876  10.450  1.00  0.00     0.041 A 
ATOM     22  Cl  UNL     1      11.610  14.521   8.836  1.00  0.00    -0.084 Cl
ENDBRANCH  15  16
BRANCH  15  23
ATOM     23  C   UNL     1      12.380  13.352  15.492  1.00  0.00     0.074 A 
ATOM     24  C   UNL     1      13.528  13.614  16.260  1.00  0.00     0.027 A 
ATOM     25  N   UNL     1      11.246  14.080  15.714  1.00  0.00    -0.258 NA
ATOM     26  C   UNL     1      13.487  14.609  17.238  1.00  0.00     0.004 A 
ATOM     27  C   UNL     1      11.188  15.055  16.660  1.00  0.00     0.111 A 
ATOM     28  C   UNL     1      12.312  15.337  17.442  1.00  0.00     0.020 A 
ENDBRANCH  15  23
ENDBRANCH  14  15
ENDBRANCH  13  14
ENDBRANCH   1   8
TORSDOF 9
ENDMDL
MODEL 8
REMARK VINA RESULT:    -7.401      3.026      4.806
REMARK INTER + INTRA:         -12.313
REMARK INTER:                 -11.317
REMARK INTRA:                  -0.996
REMARK UNBOUND:                -1.234
REMARK SMILES O=C(O)CCCN1CCC(OC(c2ccc(Cl)cc2)c2ccccn2)CC1
REMARK SMILES IDX 6 1 5 2 4 3 2 4 1 5 3 6 7 8 8 9 27 10 9 11 26 12 10 13 11 14
REMARK SMILES IDX 12 15 13 16 14 17 19 18 15 19 18 20 16 21 17 22 20 23 21 24
REMARK SMILES IDX 25 25 22 26 24 27 23 28
REMARK H PARENT 3 7
REMARK Flexibility Score: inf
ROOT
ATOM      1  C   UNL     1      13.745   8.890  18.636  1.00  0.00     0.085 C 
ENDROOT
BRANCH   1   2
ATOM      2  C   UNL     1      12.548   8.529  19.550  1.00  0.00     0.027 C 
BRANCH   2   3
ATOM      3  C   UNL     1      11.353   9.490  19.484  1.00  0.00     0.124 C 
BRANCH   3   4
ATOM      4  C   UNL     1      10.257   8.973  18.602  1.00  0.00     0.303 C 
ATOM      5  O   UNL     1       9.055   9.051  18.975  1.00  0.00    -0.252 OA
BRANCH   4   6
ATOM      6  O   UNL     1      10.567   8.411  17.367  1.00  0.00    -0.481 OA
ATOM      7  H   UNL     1      11.465   8.582  16.929  1.00  0.00     0.296 HD
ENDBRANCH   4   6
ENDBRANCH   3   4
ENDBRANCH   2   3
ENDBRANCH   1   2
BRANCH   1   8
ATOM      8  N   UNL     1      13.534   9.998  17.674  1.00  0.00    -0.303 NA
ATOM      9  C   UNL     1      13.602   9.622  16.252  1.00  0.00     0.087 C 
ATOM     10  C   UNL     1      14.263  11.250  17.960  1.00  0.00     0.087 C 
ATOM     11  C   UNL     1      12.835  10.653  15.400  1.00  0.00     0.047 C 
ATOM     12  C   UNL     1      13.934  12.350  16.927  1.00  0.00     0.047 C 
ATOM     13  C   UNL     1      12.677  12.018  16.110  1.00  0.00     0.122 C 
BRANCH  13  14
ATOM     14  O   UNL     1      12.479  13.042  15.147  1.00  0.00    -0.364 OA
BRANCH  14  15
ATOM     15  C   UNL     1      11.431  12.718  14.247  1.00  0.00     0.197 C 
BRANCH  15  16
ATOM     16  C   UNL     1      10.152  13.426  14.655  1.00  0.00    -0.013 A 
ATOM     17  C   UNL     1       9.571  14.397  13.818  1.00  0.00     0.008 A 
ATOM     18  C   UNL     1       9.510  13.090  15.860  1.00  0.00     0.008 A 
ATOM     19  C   UNL     1       8.386  15.037  14.195  1.00  0.00     0.021 A 
ATOM     20  C   UNL     1       8.325  13.731  16.233  1.00  0.00     0.021 A 
ATOM     21  C   UNL     1       7.764  14.707  15.404  1.00  0.00     0.041 A 
ATOM     22  Cl  UNL     1       6.277  15.510  15.873  1.00  0.00    -0.084 Cl
ENDBRANCH  15  16
BRANCH  15  23
ATOM     23  C   UNL     1      11.863  13.101  12.851  1.00  0.00     0.074 A 
ATOM     24  C   UNL     1      13.145  13.640  12.646  1.00  0.00     0.027 A 
ATOM     25  N   UNL     1      11.032  12.927  11.782  1.00  0.00    -0.258 NA
ATOM     26  C   UNL     1      13.544  13.992  11.356  1.00  0.00     0.004 A 
ATOM     27  C   UNL     1      11.404  13.261  10.517  1.00  0.00     0.111 A 
ATOM     28  C   UNL     1      12.671  13.801  10.282  1.00  0.00     0.020 A 
ENDBRANCH  15  23
ENDBRANCH  14  15
ENDBRANCH  13  14
ENDBRANCH   1   8
TORSDOF 9
ENDMDL
MODEL 9
REMARK VINA RESULT:    -7.375     12.024     15.026
REMARK INTER + INTRA:         -12.274
REMARK INTER:                 -11.133
REMARK INTRA:                  -1.141
REMARK UNBOUND:                -1.234
REMARK SMILES O=C(O)CCCN1CCC(OC(c2ccc(Cl)cc2)c2ccccn2)CC1
REMARK SMILES IDX 6 1 5 2 4 3 2 4 1 5 3 6 7 8 8 9 27 10 9 11 26 12 10 13 11 14
REMARK SMILES IDX 12 15 13 16 14 17 19 18 15 19 18 20 16 21 17 22 20 23 21 24
REMARK SMILES IDX 25 25 22 26 24 27 23 28
REMARK H PARENT 3 7
REMARK Flexibility Score: inf
ROOT
ATOM      1  C   UNL     1      23.352  13.073   3.136  1.00  0.00     0.085 C 
ENDROOT
BRANCH   1   2
ATOM      2  C   UNL     1      23.883  11.972   4.086  1.00  0.00     0.027 C 
BRANCH   2   3
ATOM      3  C   UNL     1      24.589  12.477   5.352  1.00  0.00     0.124 C 
BRANCH   3   4
ATOM      4  C   UNL     1      23.619  12.897   6.414  1.00  0.00     0.303 C 
ATOM      5  O   UNL     1      23.589  14.096   6.805  1.00  0.00    -0.252 OA
BRANCH   4   6
ATOM      6  O   UNL     1      22.749  11.963   6.968  1.00  0.00    -0.481 OA
ATOM      7  H   UNL     1      21.978  11.587   6.427  1.00  0.00     0.296 HD
ENDBRANCH   4   6
ENDBRANCH   3   4
ENDBRANCH   2   3
ENDBRANCH   1   2
BRANCH   1   8
ATOM      8  N   UNL     1      21.914  13.414   3.254  1.00  0.00    -0.303 NA
ATOM      9  C   UNL     1      21.624  14.760   3.777  1.00  0.00     0.087 C 
ATOM     10  C   UNL     1      21.052  12.378   3.858  1.00  0.00     0.087 C 
ATOM     11  C   UNL     1      20.215  15.202   3.332  1.00  0.00     0.047 C 
ATOM     12  C   UNL     1      19.571  12.816   3.887  1.00  0.00     0.047 C 
ATOM     13  C   UNL     1      19.302  14.010   2.960  1.00  0.00     0.122 C 
BRANCH  13  14
ATOM     14  O   UNL     1      17.940  14.387   3.091  1.00  0.00    -0.364 OA
BRANCH  14  15
ATOM     15  C   UNL     1      17.151  13.326   3.604  1.00  0.00     0.197 C 
BRANCH  15  16
ATOM     16  C   UNL     1      16.333  13.806   4.789  1.00  0.00    -0.013 A 
ATOM     17  C   UNL     1      15.661  12.887   5.616  1.00  0.00     0.008 A 
ATOM     18  C   UNL     1      16.270  15.177   5.096  1.00  0.00     0.008 A 
ATOM     19  C   UNL     1      14.918  13.336   6.712  1.00  0.00     0.021 A 
ATOM     20  C   UNL     1      15.527  15.621   6.194  1.00  0.00     0.021 A 
ATOM     21  C   UNL     1      14.848  14.703   7.001  1.00  0.00     0.041 A 
ATOM     22  Cl  UNL     1      13.918  15.263   8.378  1.00  0.00    -0.084 Cl
ENDBRANCH  15  16
BRANCH  15  23
ATOM     23  C   UNL     1      16.274  12.800   2.492  1.00  0.00     0.074 A 
ATOM     24  C   UNL     1      15.488  11.656   2.711  1.00  0.00     0.027 A 
ATOM     25  N   UNL     1      16.226  13.422   1.277  1.00  0.00    -0.258 NA
ATOM     26  C   UNL     1      14.676  11.173   1.684  1.00  0.00     0.004 A 
ATOM     27  C   UNL     1      15.439  12.968   0.265  1.00  0.00     0.111 A 
ATOM     28  C   UNL     1      14.649  11.831   0.451  1.00  0.00     0.020 A 
ENDBRANCH  15  23
ENDBRANCH  14  15
ENDBRANCH  13  14
ENDBRANCH   1   8
TORSDOF 9
ENDMDL
MODEL 10
REMARK VINA RESULT:    -7.369      5.247      9.082
REMARK INTER + INTRA:         -12.266
REMARK INTER:                 -11.176
REMARK INTRA:                  -1.089
REMARK UNBOUND:                -1.234
REMARK SMILES O=C(O)CCCN1CCC(OC(c2ccc(Cl)cc2)c2ccccn2)CC1
REMARK SMILES IDX 6 1 5 2 4 3 2 4 1 5 3 6 7 8 8 9 27 10 9 11 26 12 10 13 11 14
REMARK SMILES IDX 12 15 13 16 14 17 19 18 15 19 18 20 16 21 17 22 20 23 21 24
REMARK SMILES IDX 25 25 22 26 24 27 23 28
REMARK H PARENT 3 7
REMARK Flexibility Score: inf
ROOT
ATOM      1  C   UNL     1      17.847  15.524  16.977  1.00  0.00     0.085 C 
ENDROOT
BRANCH   1   2
ATOM      2  C   UNL     1      17.867  15.529  15.429  1.00  0.00     0.027 C 
BRANCH   2   3
ATOM      3  C   UNL     1      18.660  16.673  14.782  1.00  0.00     0.124 C 
BRANCH   3   4
ATOM      4  C   UNL     1      19.818  16.175  13.971  1.00  0.00     0.303 C 
ATOM      5  O   UNL     1      20.690  15.433  14.502  1.00  0.00    -0.252 OA
BRANCH   4   6
ATOM      6  O   UNL     1      19.928  16.528  12.629  1.00  0.00    -0.481 OA
ATOM      7  H   UNL     1      20.777  16.336  12.110  1.00  0.00     0.296 HD
ENDBRANCH   4   6
ENDBRANCH   3   4
ENDBRANCH   2   3
ENDBRANCH   1   2
BRANCH   1   8
ATOM      8  N   UNL     1      16.945  14.541  17.625  1.00  0.00    -0.303 NA
ATOM      9  C   UNL     1      16.117  15.071  18.722  1.00  0.00     0.087 C 
ATOM     10  C   UNL     1      17.546  13.233  17.955  1.00  0.00     0.087 C 
ATOM     11  C   UNL     1      14.876  14.177  18.918  1.00  0.00     0.047 C 
ATOM     12  C   UNL     1      16.510  12.272  18.579  1.00  0.00     0.047 C 
ATOM     13  C   UNL     1      15.068  12.750  18.354  1.00  0.00     0.122 C 
BRANCH  13  14
ATOM     14  O   UNL     1      14.186  11.850  19.006  1.00  0.00    -0.364 OA
BRANCH  14  15
ATOM     15  C   UNL     1      14.380  10.516  18.565  1.00  0.00     0.197 C 
BRANCH  15  16
ATOM     16  C   UNL     1      14.156   9.546  19.711  1.00  0.00    -0.013 A 
ATOM     17  C   UNL     1      14.189   9.993  21.045  1.00  0.00     0.008 A 
ATOM     18  C   UNL     1      13.874   8.194  19.448  1.00  0.00     0.008 A 
ATOM     19  C   UNL     1      13.970   9.096  22.095  1.00  0.00     0.021 A 
ATOM     20  C   UNL     1      13.655   7.301  20.502  1.00  0.00     0.021 A 
ATOM     21  C   UNL     1      13.706   7.749  21.825  1.00  0.00     0.041 A 
ATOM     22  Cl  UNL     1      13.431   6.627  23.145  1.00  0.00    -0.084 Cl
ENDBRANCH  15  16
BRANCH  15  23
ATOM     23  C   UNL     1      13.438  10.251  17.414  1.00  0.00     0.074 A 
ATOM     24  C   UNL     1      13.866   9.456  16.337  1.00  0.00     0.027 A 
ATOM     25  N   UNL     1      12.173  10.767  17.403  1.00  0.00    -0.258 NA
ATOM     26  C   UNL     1      12.994   9.211  15.274  1.00  0.00     0.004 A 
ATOM     27  C   UNL     1      11.309  10.537  16.379  1.00  0.00     0.111 A 
ATOM     28  C   UNL     1      11.706   9.753  15.293  1.00  0.00     0.020 A 
ENDBRANCH  15  23
ENDBRANCH  14  15
ENDBRANCH  13  14
ENDBRANCH   1   8
TORSDOF 9
ENDMDL
MODEL 11
REMARK VINA RESULT:    -7.367      4.637      8.152
REMARK INTER + INTRA:         -12.263
REMARK INTER:                 -10.524
REMARK INTRA:                  -1.739
REMARK UNBOUND:                -1.234
REMARK SMILES O=C(O)CCCN1CCC(OC(c2ccc(Cl)cc2)c2ccccn2)CC1
REMARK SMILES IDX 6 1 5 2 4 3 2 4 1 5 3 6 7 8 8 9 27 10 9 11 26 12 10 13 11 14
REMARK SMILES IDX 12 15 13 16 14 17 19 18 15 19 18 20 16 21 17 22 20 23 21 24
REMARK SMILES IDX 25 25 22 26 24 27 23 28
REMARK H PARENT 3 7
REMARK Flexibility Score: inf
ROOT
ATOM      1  C   UNL     1       7.866  16.431  18.167  1.00  0.00     0.085 C 
ENDROOT
BRANCH   1   2
ATOM      2  C   UNL     1       6.364  16.714  17.920  1.00  0.00     0.027 C 
BRANCH   2   3
ATOM      3  C   UNL     1       6.006  17.198  16.509  1.00  0.00     0.124 C 
BRANCH   3   4
ATOM      4  C   UNL     1       5.354  16.126  15.689  1.00  0.00     0.303 C 
ATOM      5  O   UNL     1       4.122  16.192  15.426  1.00  0.00    -0.252 OA
BRANCH   4   6
ATOM      6  O   UNL     1       6.111  15.058  15.215  1.00  0.00    -0.481 OA
ATOM      7  H   UNL     1       5.672  14.176  14.978  1.00  0.00     0.296 HD
ENDBRANCH   4   6
ENDBRANCH   3   4
ENDBRANCH   2   3
ENDBRANCH   1   2
BRANCH   1   8
ATOM      8  N   UNL     1       8.534  15.514  17.212  1.00  0.00    -0.303 NA
ATOM      9  C   UNL     1       8.673  14.121  17.666  1.00  0.00     0.087 C 
ATOM     10  C   UNL     1       9.766  16.026  16.579  1.00  0.00     0.087 C 
ATOM     11  C   UNL     1       8.833  13.187  16.450  1.00  0.00     0.047 C 
ATOM     12  C   UNL     1      10.350  15.014  15.569  1.00  0.00     0.047 C 
ATOM     13  C   UNL     1       9.335  13.926  15.188  1.00  0.00     0.122 C 
BRANCH  13  14
ATOM     14  O   UNL     1       9.965  13.007  14.310  1.00  0.00    -0.364 OA
BRANCH  14  15
ATOM     15  C   UNL     1      11.373  13.182  14.291  1.00  0.00     0.197 C 
BRANCH  15  16
ATOM     16  C   UNL     1      12.060  11.986  14.924  1.00  0.00    -0.013 A 
ATOM     17  C   UNL     1      13.052  12.165  15.906  1.00  0.00     0.008 A 
ATOM     18  C   UNL     1      11.682  10.680  14.562  1.00  0.00     0.008 A 
ATOM     19  C   UNL     1      13.671  11.057  16.493  1.00  0.00     0.021 A 
ATOM     20  C   UNL     1      12.304   9.576  15.153  1.00  0.00     0.021 A 
ATOM     21  C   UNL     1      13.301   9.762  16.115  1.00  0.00     0.041 A 
ATOM     22  Cl  UNL     1      14.079   8.375  16.855  1.00  0.00    -0.084 Cl
ENDBRANCH  15  16
BRANCH  15  23
ATOM     23  C   UNL     1      11.811  13.388  12.860  1.00  0.00     0.074 A 
ATOM     24  C   UNL     1      13.171  13.597  12.575  1.00  0.00     0.027 A 
ATOM     25  N   UNL     1      10.908  13.370  11.836  1.00  0.00    -0.258 NA
ATOM     26  C   UNL     1      13.575  13.785  11.252  1.00  0.00     0.004 A 
ATOM     27  C   UNL     1      11.282  13.548  10.541  1.00  0.00     0.111 A 
ATOM     28  C   UNL     1      12.627  13.760  10.225  1.00  0.00     0.020 A 
ENDBRANCH  15  23
ENDBRANCH  14  15
ENDBRANCH  13  14
ENDBRANCH   1   8
TORSDOF 9
ENDMDL
MODEL 12
REMARK VINA RESULT:    -7.352      2.426      3.223
REMARK INTER + INTRA:         -12.239
REMARK INTER:                 -11.045
REMARK INTRA:                  -1.194
REMARK UNBOUND:                -1.234
REMARK SMILES O=C(O)CCCN1CCC(OC(c2ccc(Cl)cc2)c2ccccn2)CC1
REMARK SMILES IDX 6 1 5 2 4 3 2 4 1 5 3 6 7 8 8 9 27 10 9 11 26 12 10 13 11 14
REMARK SMILES IDX 12 15 13 16 14 17 19 18 15 19 18 20 16 21 17 22 20 23 21 24
REMARK SMILES IDX 25 25 22 26 24 27 23 28
REMARK H PARENT 3 7
REMARK Flexibility Score: inf
ROOT
ATOM      1  C   UNL     1      14.277   7.753  20.688  1.00  0.00     0.085 C 
ENDROOT
BRANCH   1   2
ATOM      2  C   UNL     1      14.279   8.561  22.009  1.00  0.00     0.027 C 
BRANCH   2   3
ATOM      3  C   UNL     1      12.952   9.246  22.365  1.00  0.00     0.124 C 
BRANCH   3   4
ATOM      4  C   UNL     1      13.131  10.340  23.373  1.00  0.00     0.303 C 
ATOM      5  O   UNL     1      13.224  11.540  22.995  1.00  0.00    -0.252 OA
BRANCH   4   6
ATOM      6  O   UNL     1      13.190  10.032  24.729  1.00  0.00    -0.481 OA
ATOM      7  H   UNL     1      12.682   9.239  25.104  1.00  0.00     0.296 HD
ENDBRANCH   4   6
ENDBRANCH   3   4
ENDBRANCH   2   3
ENDBRANCH   1   2
BRANCH   1   8
ATOM      8  N   UNL     1      13.706   8.428  19.498  1.00  0.00    -0.303 NA
ATOM      9  C   UNL     1      13.208   7.532  18.441  1.00  0.00     0.087 C 
ATOM     10  C   UNL     1      14.490   9.556  18.956  1.00  0.00     0.087 C 
ATOM     11  C   UNL     1      12.169   8.272  17.574  1.00  0.00     0.047 C 
ATOM     12  C   UNL     1      13.782  10.217  17.753  1.00  0.00     0.047 C 
ATOM     13  C   UNL     1      12.304   9.810  17.657  1.00  0.00     0.122 C 
BRANCH  13  14
ATOM     14  O   UNL     1      11.744  10.407  16.498  1.00  0.00    -0.364 OA
BRANCH  14  15
ATOM     15  C   UNL     1      11.118  11.644  16.797  1.00  0.00     0.197 C 
BRANCH  15  16
ATOM     16  C   UNL     1      10.769  12.379  15.516  1.00  0.00    -0.013 A 
ATOM     17  C   UNL     1       9.973  13.539  15.548  1.00  0.00     0.008 A 
ATOM     18  C   UNL     1      11.271  11.928  14.282  1.00  0.00     0.008 A 
ATOM     19  C   UNL     1       9.666  14.217  14.365  1.00  0.00     0.021 A 
ATOM     20  C   UNL     1      10.961  12.610  13.101  1.00  0.00     0.021 A 
ATOM     21  C   UNL     1      10.157  13.752  13.140  1.00  0.00     0.041 A 
ATOM     22  Cl  UNL     1       9.770  14.606  11.657  1.00  0.00    -0.084 Cl
ENDBRANCH  15  16
BRANCH  15  23
ATOM     23  C   UNL     1       9.893  11.370  17.638  1.00  0.00     0.074 A 
ATOM     24  C   UNL     1       9.629  12.173  18.760  1.00  0.00     0.027 A 
ATOM     25  N   UNL     1       9.033  10.356  17.323  1.00  0.00    -0.258 NA
ATOM     26  C   UNL     1       8.496  11.919  19.535  1.00  0.00     0.004 A 
ATOM     27  C   UNL     1       7.923  10.096  18.064  1.00  0.00     0.111 A 
ATOM     28  C   UNL     1       7.635  10.875  19.187  1.00  0.00     0.020 A 
ENDBRANCH  15  23
ENDBRANCH  14  15
ENDBRANCH  13  14
ENDBRANCH   1   8
TORSDOF 9
ENDMDL
MODEL 13
REMARK VINA RESULT:    -7.292     12.235     15.162
REMARK INTER + INTRA:         -12.150
REMARK INTER:                 -10.669
REMARK INTRA:                  -1.481
REMARK UNBOUND:                -1.234
REMARK SMILES O=C(O)CCCN1CCC(OC(c2ccc(Cl)cc2)c2ccccn2)CC1
REMARK SMILES IDX 6 1 5 2 4 3 2 4 1 5 3 6 7 8 8 9 27 10 9 11 26 12 10 13 11 14
REMARK SMILES IDX 12 15 13 16 14 17 19 18 15 19 18 20 16 21 17 22 20 23 21 24
REMARK SMILES IDX 25 25 22 26 24 27 23 28
REMARK H PARENT 3 7
REMARK Flexibility Score: inf
ROOT
ATOM      1  C   UNL     1      22.490  13.413   6.081  1.00  0.00     0.085 C 
ENDROOT
BRANCH   1   2
ATOM      2  C   UNL     1      23.229  12.063   5.908  1.00  0.00     0.027 C 
BRANCH   2   3
ATOM      3  C   UNL     1      24.580  12.138   5.184  1.00  0.00     0.124 C 
BRANCH   3   4
ATOM      4  C   UNL     1      24.426  12.146   3.693  1.00  0.00     0.303 C 
ATOM      5  O   UNL     1      24.249  13.235   3.082  1.00  0.00    -0.252 OA
BRANCH   4   6
ATOM      6  O   UNL     1      24.482  10.951   2.983  1.00  0.00    -0.481 OA
ATOM      7  H   UNL     1      23.811  10.211   3.158  1.00  0.00     0.296 HD
ENDBRANCH   4   6
ENDBRANCH   3   4
ENDBRANCH   2   3
ENDBRANCH   1   2
BRANCH   1   8
ATOM      8  N   UNL     1      21.290  13.626   5.236  1.00  0.00    -0.303 NA
ATOM      9  C   UNL     1      20.842  12.451   4.469  1.00  0.00     0.087 C 
ATOM     10  C   UNL     1      21.280  14.862   4.429  1.00  0.00     0.087 C 
ATOM     11  C   UNL     1      19.350  12.599   4.111  1.00  0.00     0.047 C 
ATOM     12  C   UNL     1      19.967  15.008   3.627  1.00  0.00     0.047 C 
ATOM     13  C   UNL     1      18.868  14.068   4.143  1.00  0.00     0.122 C 
BRANCH  13  14
ATOM     14  O   UNL     1      17.721  14.218   3.320  1.00  0.00    -0.364 OA
BRANCH  14  15
ATOM     15  C   UNL     1      16.691  13.314   3.688  1.00  0.00     0.197 C 
BRANCH  15  16
ATOM     16  C   UNL     1      15.715  13.989   4.634  1.00  0.00    -0.013 A 
ATOM     17  C   UNL     1      14.974  15.111   4.219  1.00  0.00     0.008 A 
ATOM     18  C   UNL     1      15.512  13.474   5.927  1.00  0.00     0.008 A 
ATOM     19  C   UNL     1      14.068  15.720   5.093  1.00  0.00     0.021 A 
ATOM     20  C   UNL     1      14.604  14.086   6.796  1.00  0.00     0.021 A 
ATOM     21  C   UNL     1      13.884  15.211   6.383  1.00  0.00     0.041 A 
ATOM     22  Cl  UNL     1      12.745  15.977   7.475  1.00  0.00    -0.084 Cl
ENDBRANCH  15  16
BRANCH  15  23
ATOM     23  C   UNL     1      16.009  12.828   2.431  1.00  0.00     0.074 A 
ATOM     24  C   UNL     1      15.139  11.726   2.497  1.00  0.00     0.027 A 
ATOM     25  N   UNL     1      16.220  13.443   1.230  1.00  0.00    -0.258 NA
ATOM     26  C   UNL     1      14.508  11.279   1.335  1.00  0.00     0.004 A 
ATOM     27  C   UNL     1      15.612  13.024   0.088  1.00  0.00     0.111 A 
ATOM     28  C   UNL     1      14.743  11.930   0.121  1.00  0.00     0.020 A 
ENDBRANCH  15  23
ENDBRANCH  14  15
ENDBRANCH  13  14
ENDBRANCH   1   8
TORSDOF 9
ENDMDL
MODEL 14
REMARK VINA RESULT:    -7.287      2.981      4.814
REMARK INTER + INTRA:         -12.142
REMARK INTER:                 -10.862
REMARK INTRA:                  -1.280
REMARK UNBOUND:                -1.234
REMARK SMILES O=C(O)CCCN1CCC(OC(c2ccc(Cl)cc2)c2ccccn2)CC1
REMARK SMILES IDX 6 1 5 2 4 3 2 4 1 5 3 6 7 8 8 9 27 10 9 11 26 12 10 13 11 14
REMARK SMILES IDX 12 15 13 16 14 17 19 18 15 19 18 20 16 21 17 22 20 23 21 24
REMARK SMILES IDX 25 25 22 26 24 27 23 28
REMARK H PARENT 3 7
REMARK Flexibility Score: inf
ROOT
ATOM      1  C   UNL     1      13.754   8.880  19.721  1.00  0.00     0.085 C 
ENDROOT
BRANCH   1   2
ATOM      2  C   UNL     1      13.247   7.547  19.117  1.00  0.00     0.027 C 
BRANCH   2   3
ATOM      3  C   UNL     1      12.108   7.675  18.097  1.00  0.00     0.124 C 
BRANCH   3   4
ATOM      4  C   UNL     1      12.615   7.919  16.708  1.00  0.00     0.303 C 
ATOM      5  O   UNL     1      11.802   8.102  15.761  1.00  0.00    -0.252 OA
BRANCH   4   6
ATOM      6  O   UNL     1      13.985   7.948  16.463  1.00  0.00    -0.481 OA
ATOM      7  H   UNL     1      14.351   8.347  15.607  1.00  0.00     0.296 HD
ENDBRANCH   4   6
ENDBRANCH   3   4
ENDBRANCH   2   3
ENDBRANCH   1   2
BRANCH   1   8
ATOM      8  N   UNL     1      13.436  10.114  18.963  1.00  0.00    -0.303 NA
ATOM      9  C   UNL     1      14.585  10.774  18.320  1.00  0.00     0.087 C 
ATOM     10  C   UNL     1      12.542  11.076  19.640  1.00  0.00     0.087 C 
ATOM     11  C   UNL     1      14.096  11.651  17.149  1.00  0.00     0.047 C 
ATOM     12  C   UNL     1      12.238  12.298  18.745  1.00  0.00     0.047 C 
ATOM     13  C   UNL     1      12.606  12.044  17.276  1.00  0.00     0.122 C 
BRANCH  13  14
ATOM     14  O   UNL     1      12.355  13.229  16.535  1.00  0.00    -0.364 OA
BRANCH  14  15
ATOM     15  C   UNL     1      11.637  12.957  15.342  1.00  0.00     0.197 C 
BRANCH  15  16
ATOM     16  C   UNL     1      10.260  13.595  15.403  1.00  0.00    -0.013 A 
ATOM     17  C   UNL     1       9.691  14.183  14.258  1.00  0.00     0.008 A 
ATOM     18  C   UNL     1       9.521  13.570  16.599  1.00  0.00     0.008 A 
ATOM     19  C   UNL     1       8.418  14.758  14.319  1.00  0.00     0.021 A 
ATOM     20  C   UNL     1       8.248  14.145  16.654  1.00  0.00     0.021 A 
ATOM     21  C   UNL     1       7.696  14.742  15.517  1.00  0.00     0.041 A 
ATOM     22  Cl  UNL     1       6.099  15.463  15.589  1.00  0.00    -0.084 Cl
ENDBRANCH  15  16
BRANCH  15  23
ATOM     23  C   UNL     1      12.441  13.470  14.172  1.00  0.00     0.074 A 
ATOM     24  C   UNL     1      12.468  12.736  12.974  1.00  0.00     0.027 A 
ATOM     25  N   UNL     1      13.141  14.640  14.254  1.00  0.00    -0.258 NA
ATOM     26  C   UNL     1      13.210  13.211  11.892  1.00  0.00     0.004 A 
ATOM     27  C   UNL     1      13.868  15.121  13.210  1.00  0.00     0.111 A 
ATOM     28  C   UNL     1      13.916  14.412  12.007  1.00  0.00     0.020 A 
ENDBRANCH  15  23
ENDBRANCH  14  15
ENDBRANCH  13  14
ENDBRANCH   1   8
TORSDOF 9
ENDMDL
MODEL 15
REMARK VINA RESULT:    -7.218      4.741      8.837
REMARK INTER + INTRA:         -12.039
REMARK INTER:                 -10.808
REMARK INTRA:                  -1.231
REMARK UNBOUND:                -1.234
REMARK SMILES O=C(O)CCCN1CCC(OC(c2ccc(Cl)cc2)c2ccccn2)CC1
REMARK SMILES IDX 6 1 5 2 4 3 2 4 1 5 3 6 7 8 8 9 27 10 9 11 26 12 10 13 11 14
REMARK SMILES IDX 12 15 13 16 14 17 19 18 15 19 18 20 16 21 17 22 20 23 21 24
REMARK SMILES IDX 25 25 22 26 24 27 23 28
REMARK H PARENT 3 7
REMARK Flexibility Score: inf
ROOT
ATOM      1  C   UNL     1       6.920  17.082  16.806  1.00  0.00     0.085 C 
ENDROOT
BRANCH   1   2
ATOM      2  C   UNL     1       5.477  16.817  17.299  1.00  0.00     0.027 C 
BRANCH   2   3
ATOM      3  C   UNL     1       4.403  17.760  16.740  1.00  0.00     0.124 C 
BRANCH   3   4
ATOM      4  C   UNL     1       3.276  17.016  16.089  1.00  0.00     0.303 C 
ATOM      5  O   UNL     1       3.464  16.409  14.999  1.00  0.00    -0.252 OA
BRANCH   4   6
ATOM      6  O   UNL     1       2.021  16.992  16.691  1.00  0.00    -0.481 OA
ATOM      7  H   UNL     1       1.294  17.635  16.400  1.00  0.00     0.296 HD
ENDBRANCH   4   6
ENDBRANCH   3   4
ENDBRANCH   2   3
ENDBRANCH   1   2
BRANCH   1   8
ATOM      8  N   UNL     1       7.614  15.951  16.146  1.00  0.00    -0.303 NA
ATOM      9  C   UNL     1       7.019  15.496  14.878  1.00  0.00     0.087 C 
ATOM     10  C   UNL     1       7.994  14.826  17.024  1.00  0.00     0.087 C 
ATOM     11  C   UNL     1       8.080  14.762  14.035  1.00  0.00     0.047 C 
ATOM     12  C   UNL     1       8.752  13.727  16.247  1.00  0.00     0.047 C 
ATOM     13  C   UNL     1       9.256  14.226  14.884  1.00  0.00     0.122 C 
BRANCH  13  14
ATOM     14  O   UNL     1       9.884  13.146  14.211  1.00  0.00    -0.364 OA
BRANCH  14  15
ATOM     15  C   UNL     1      11.297  13.277  14.218  1.00  0.00     0.197 C 
BRANCH  15  16
ATOM     16  C   UNL     1      11.932  12.081  14.902  1.00  0.00    -0.013 A 
ATOM     17  C   UNL     1      11.527  10.772  14.580  1.00  0.00     0.008 A 
ATOM     18  C   UNL     1      12.962  12.267  15.840  1.00  0.00     0.008 A 
ATOM     19  C   UNL     1      12.124   9.674  15.207  1.00  0.00     0.021 A 
ATOM     20  C   UNL     1      13.558  11.165  16.464  1.00  0.00     0.021 A 
ATOM     21  C   UNL     1      13.138   9.869  16.151  1.00  0.00     0.041 A 
ATOM     22  Cl  UNL     1      13.887   8.490  16.934  1.00  0.00    -0.084 Cl
ENDBRANCH  15  16
BRANCH  15  23
ATOM     23  C   UNL     1      11.770  13.424  12.791  1.00  0.00     0.074 A 
ATOM     24  C   UNL     1      13.149  13.472  12.519  1.00  0.00     0.027 A 
ATOM     25  N   UNL     1      10.881  13.506  11.757  1.00  0.00    -0.258 NA
ATOM     26  C   UNL     1      13.585  13.606  11.200  1.00  0.00     0.004 A 
ATOM     27  C   UNL     1      11.288  13.633  10.465  1.00  0.00     0.111 A 
ATOM     28  C   UNL     1      12.651  13.687  10.164  1.00  0.00     0.020 A 
ENDBRANCH  15  23
ENDBRANCH  14  15
ENDBRANCH  13  14
ENDBRANCH   1   8
TORSDOF 9
ENDMDL
