MODEL 1
REMARK VINA RESULT:    -9.563      0.000      0.000
REMARK INTER + INTRA:         -13.812
REMARK INTER:                 -13.197
REMARK INTRA:                  -0.616
REMARK UNBOUND:                -0.616
REMARK SMILES CN1[C@@H](CC(=O)c2ccccc2)CCC[C@H]1C[C@H](O)c1ccccc1
REMARK SMILES IDX 1 1 2 2 16 3 15 4 14 5 13 6 3 7 17 8 18 9 19 10 20 12 21 13
REMARK SMILES IDX 25 14 22 15 24 16 23 17 4 18 5 19 6 20 7 21 8 22 12 23 9 24
REMARK SMILES IDX 11 25 10 26
REMARK H PARENT 19 11
REMARK Flexibility Score: inf
ROOT
ATOM      1  C   UNL     1      16.212  34.803  10.668  1.00  0.00     0.106 C 
ATOM      2  N   UNL     1      16.914  33.602  11.186  1.00  0.00    -0.300 NA
ATOM      3  C   UNL     1      17.920  33.139  10.169  1.00  0.00     0.059 C 
ATOM      4  C   UNL     1      18.770  31.965  10.709  1.00  0.00     0.019 C 
ATOM      5  C   UNL     1      19.444  32.334  12.017  1.00  0.00     0.003 C 
ATOM      6  C   UNL     1      18.383  32.714  13.028  1.00  0.00     0.020 C 
ATOM      7  C   UNL     1      17.536  33.898  12.517  1.00  0.00     0.064 C 
ENDROOT
BRANCH   3   8
ATOM      8  C   UNL     1      17.217  32.713   8.841  1.00  0.00     0.055 C 
BRANCH   8   9
ATOM      9  C   UNL     1      17.789  31.444   8.159  1.00  0.00     0.146 C 
BRANCH   9  10
ATOM     10  O   UNL     1      18.737  31.756   7.168  1.00  0.00    -0.388 OA
ATOM     11  H   UNL     1      19.400  32.384   7.558  1.00  0.00     0.211 HD
ENDBRANCH   9  10
BRANCH   9  12
ATOM     12  C   UNL     1      16.676  30.588   7.582  1.00  0.00    -0.020 A 
ATOM     13  C   UNL     1      15.322  30.921   7.786  1.00  0.00     0.006 A 
ATOM     14  C   UNL     1      16.985  29.417   6.865  1.00  0.00     0.006 A 
ATOM     15  C   UNL     1      14.307  30.112   7.267  1.00  0.00     0.000 A 
ATOM     16  C   UNL     1      15.967  28.611   6.348  1.00  0.00     0.000 A 
ATOM     17  C   UNL     1      14.629  28.960   6.547  1.00  0.00     0.000 A 
ENDBRANCH   9  12
ENDBRANCH   8   9
ENDBRANCH   3   8
BRANCH   7  18
ATOM     18  C   UNL     1      16.490  34.247  13.619  1.00  0.00     0.100 C 
BRANCH  18  19
ATOM     19  C   UNL     1      17.091  34.963  14.809  1.00  0.00     0.164 C 
ATOM     20  O   UNL     1      18.288  35.353  14.724  1.00  0.00    -0.294 OA
BRANCH  19  21
ATOM     21  C   UNL     1      16.326  35.274  16.047  1.00  0.00     0.018 A 
ATOM     22  C   UNL     1      14.939  35.042  16.147  1.00  0.00     0.012 A 
ATOM     23  C   UNL     1      17.002  35.810  17.160  1.00  0.00     0.012 A 
ATOM     24  C   UNL     1      14.251  35.354  17.324  1.00  0.00     0.001 A 
ATOM     25  C   UNL     1      16.309  36.119  18.334  1.00  0.00     0.001 A 
ATOM     26  C   UNL     1      14.934  35.893  18.415  1.00  0.00     0.000 A 
ENDBRANCH  19  21
ENDBRANCH  18  19
ENDBRANCH   7  18
TORSDOF 7
ENDMDL
MODEL 2
REMARK VINA RESULT:    -9.336      1.139      1.664
REMARK INTER + INTRA:         -13.499
REMARK INTER:                 -13.194
REMARK INTRA:                  -0.305
REMARK UNBOUND:                -0.616
REMARK SMILES CN1[C@@H](CC(=O)c2ccccc2)CCC[C@H]1C[C@H](O)c1ccccc1
REMARK SMILES IDX 1 1 2 2 16 3 15 4 14 5 13 6 3 7 17 8 18 9 19 10 20 12 21 13
REMARK SMILES IDX 25 14 22 15 24 16 23 17 4 18 5 19 6 20 7 21 8 22 12 23 9 24
REMARK SMILES IDX 11 25 10 26
REMARK H PARENT 19 11
REMARK Flexibility Score: inf
ROOT
ATOM      1  C   UNL     1      16.139  34.959   9.977  1.00  0.00     0.106 C 
ATOM      2  N   UNL     1      16.719  33.673  10.439  1.00  0.00    -0.300 NA
ATOM      3  C   UNL     1      17.651  33.143   9.386  1.00  0.00     0.059 C 
ATOM      4  C   UNL     1      18.381  31.867   9.867  1.00  0.00     0.019 C 
ATOM      5  C   UNL     1      19.113  32.116  11.173  1.00  0.00     0.003 C 
ATOM      6  C   UNL     1      18.117  32.569  12.218  1.00  0.00     0.020 C 
ATOM      7  C   UNL     1      17.391  33.854  11.766  1.00  0.00     0.064 C 
ENDROOT
BRANCH   3   8
ATOM      8  C   UNL     1      16.883  32.842   8.060  1.00  0.00     0.055 C 
BRANCH   8   9
ATOM      9  C   UNL     1      15.699  31.849   8.184  1.00  0.00     0.146 C 
BRANCH   9  10
ATOM     10  O   UNL     1      15.406  31.539   9.525  1.00  0.00    -0.388 OA
ATOM     11  H   UNL     1      15.174  30.575   9.578  1.00  0.00     0.211 HD
ENDBRANCH   9  10
BRANCH   9  12
ATOM     12  C   UNL     1      15.965  30.583   7.390  1.00  0.00    -0.020 A 
ATOM     13  C   UNL     1      14.909  29.737   6.997  1.00  0.00     0.006 A 
ATOM     14  C   UNL     1      17.285  30.214   7.069  1.00  0.00     0.006 A 
ATOM     15  C   UNL     1      15.170  28.563   6.284  1.00  0.00     0.000 A 
ATOM     16  C   UNL     1      17.540  29.040   6.357  1.00  0.00     0.000 A 
ATOM     17  C   UNL     1      16.484  28.216   5.962  1.00  0.00     0.000 A 
ENDBRANCH   9  12
ENDBRANCH   8   9
ENDBRANCH   3   8
BRANCH   7  18
ATOM     18  C   UNL     1      16.408  34.271  12.901  1.00  0.00     0.100 C 
BRANCH  18  19
ATOM     19  C   UNL     1      17.109  34.739  14.158  1.00  0.00     0.164 C 
ATOM     20  O   UNL     1      18.354  34.935  14.104  1.00  0.00    -0.294 OA
BRANCH  19  21
ATOM     21  C   UNL     1      16.396  35.028  15.432  1.00  0.00     0.018 A 
ATOM     22  C   UNL     1      17.065  35.535  16.565  1.00  0.00     0.012 A 
ATOM     23  C   UNL     1      15.009  34.798  15.514  1.00  0.00     0.012 A 
ATOM     24  C   UNL     1      16.362  35.788  17.748  1.00  0.00     0.001 A 
ATOM     25  C   UNL     1      14.313  35.053  16.699  1.00  0.00     0.001 A 
ATOM     26  C   UNL     1      14.990  35.546  17.816  1.00  0.00     0.000 A 
ENDBRANCH  19  21
ENDBRANCH  18  19
ENDBRANCH   7  18
TORSDOF 7
ENDMDL
MODEL 3
REMARK VINA RESULT:    -9.221      0.850      8.993
REMARK INTER + INTRA:         -13.341
REMARK INTER:                 -12.678
REMARK INTRA:                  -0.663
REMARK UNBOUND:                -0.616
REMARK SMILES CN1[C@@H](CC(=O)c2ccccc2)CCC[C@H]1C[C@H](O)c1ccccc1
REMARK SMILES IDX 1 1 2 2 16 3 15 4 14 5 13 6 3 7 17 8 18 9 19 10 20 12 21 13
REMARK SMILES IDX 25 14 22 15 24 16 23 17 4 18 5 19 6 20 7 21 8 22 12 23 9 24
REMARK SMILES IDX 11 25 10 26
REMARK H PARENT 19 11
REMARK Flexibility Score: inf
ROOT
ATOM      1  C   UNL     1      19.471  32.325  12.058  1.00  0.00     0.106 C 
ATOM      2  N   UNL     1      18.087  32.719  11.690  1.00  0.00    -0.300 NA
ATOM      3  C   UNL     1      17.672  33.902  12.519  1.00  0.00     0.059 C 
ATOM      4  C   UNL     1      16.285  34.435  12.089  1.00  0.00     0.019 C 
ATOM      5  C   UNL     1      16.263  34.769  10.609  1.00  0.00     0.003 C 
ATOM      6  C   UNL     1      16.609  33.525   9.818  1.00  0.00     0.020 C 
ATOM      7  C   UNL     1      17.999  32.988  10.218  1.00  0.00     0.064 C 
ENDROOT
BRANCH   3   8
ATOM      8  C   UNL     1      17.649  33.539  14.038  1.00  0.00     0.055 C 
BRANCH   8   9
ATOM      9  C   UNL     1      18.046  34.684  15.005  1.00  0.00     0.146 C 
BRANCH   9  10
ATOM     10  O   UNL     1      19.244  34.407  15.690  1.00  0.00    -0.388 OA
ATOM     11  H   UNL     1      19.722  35.264  15.841  1.00  0.00     0.211 HD
ENDBRANCH   9  10
BRANCH   9  12
ATOM     12  C   UNL     1      16.927  34.982  15.986  1.00  0.00    -0.020 A 
ATOM     13  C   UNL     1      15.603  34.579  15.721  1.00  0.00     0.006 A 
ATOM     14  C   UNL     1      17.193  35.707  17.162  1.00  0.00     0.006 A 
ATOM     15  C   UNL     1      14.578  34.878  16.624  1.00  0.00     0.000 A 
ATOM     16  C   UNL     1      16.164  36.004  18.061  1.00  0.00     0.000 A 
ATOM     17  C   UNL     1      14.858  35.587  17.793  1.00  0.00     0.000 A 
ENDBRANCH   9  12
ENDBRANCH   8   9
ENDBRANCH   3   8
BRANCH   7  18
ATOM     18  C   UNL     1      18.294  31.731   9.346  1.00  0.00     0.100 C 
BRANCH  18  19
ATOM     19  C   UNL     1      17.643  31.783   7.981  1.00  0.00     0.164 C 
ATOM     20  O   UNL     1      18.005  32.694   7.186  1.00  0.00    -0.294 OA
BRANCH  19  21
ATOM     21  C   UNL     1      16.641  30.786   7.515  1.00  0.00     0.018 A 
ATOM     22  C   UNL     1      17.021  29.575   6.901  1.00  0.00     0.012 A 
ATOM     23  C   UNL     1      15.270  31.050   7.696  1.00  0.00     0.012 A 
ATOM     24  C   UNL     1      16.050  28.665   6.469  1.00  0.00     0.001 A 
ATOM     25  C   UNL     1      14.305  30.136   7.263  1.00  0.00     0.001 A 
ATOM     26  C   UNL     1      14.695  28.945   6.648  1.00  0.00     0.000 A 
ENDBRANCH  19  21
ENDBRANCH  18  19
ENDBRANCH   7  18
TORSDOF 7
ENDMDL
MODEL 4
REMARK VINA RESULT:    -8.883      1.308      2.425
REMARK INTER + INTRA:         -12.873
REMARK INTER:                 -12.925
REMARK INTRA:                   0.052
REMARK UNBOUND:                -0.616
REMARK SMILES CN1[C@@H](CC(=O)c2ccccc2)CCC[C@H]1C[C@H](O)c1ccccc1
REMARK SMILES IDX 1 1 2 2 16 3 15 4 14 5 13 6 3 7 17 8 18 9 19 10 20 12 21 13
REMARK SMILES IDX 25 14 22 15 24 16 23 17 4 18 5 19 6 20 7 21 8 22 12 23 9 24
REMARK SMILES IDX 11 25 10 26
REMARK H PARENT 19 11
REMARK Flexibility Score: inf
ROOT
ATOM      1  C   UNL     1      18.283  31.973  10.297  1.00  0.00     0.106 C 
ATOM      2  N   UNL     1      17.755  33.278   9.823  1.00  0.00    -0.300 NA
ATOM      3  C   UNL     1      16.938  33.061   8.581  1.00  0.00     0.059 C 
ATOM      4  C   UNL     1      16.259  34.370   8.115  1.00  0.00     0.019 C 
ATOM      5  C   UNL     1      15.418  34.974   9.225  1.00  0.00     0.003 C 
ATOM      6  C   UNL     1      16.304  35.246  10.421  1.00  0.00     0.020 C 
ATOM      7  C   UNL     1      16.977  33.948  10.915  1.00  0.00     0.064 C 
ENDROOT
BRANCH   3   8
ATOM      8  C   UNL     1      17.819  32.486   7.426  1.00  0.00     0.055 C 
BRANCH   8   9
ATOM      9  C   UNL     1      18.060  30.955   7.469  1.00  0.00     0.146 C 
BRANCH   9  10
ATOM     10  O   UNL     1      19.108  30.560   6.617  1.00  0.00    -0.388 OA
ATOM     11  H   UNL     1      19.726  31.329   6.506  1.00  0.00     0.211 HD
ENDBRANCH   9  10
BRANCH   9  12
ATOM     12  C   UNL     1      16.789  30.195   7.138  1.00  0.00    -0.020 A 
ATOM     13  C   UNL     1      15.529  30.671   7.552  1.00  0.00     0.006 A 
ATOM     14  C   UNL     1      16.857  28.972   6.444  1.00  0.00     0.006 A 
ATOM     15  C   UNL     1      14.368  29.950   7.258  1.00  0.00     0.000 A 
ATOM     16  C   UNL     1      15.693  28.255   6.153  1.00  0.00     0.000 A 
ATOM     17  C   UNL     1      14.450  28.745   6.558  1.00  0.00     0.000 A 
ENDBRANCH   9  12
ENDBRANCH   8   9
ENDBRANCH   3   8
BRANCH   7  18
ATOM     18  C   UNL     1      17.845  34.303  12.160  1.00  0.00     0.100 C 
BRANCH  18  19
ATOM     19  C   UNL     1      17.446  33.542  13.405  1.00  0.00     0.164 C 
ATOM     20  O   UNL     1      18.104  32.508  13.703  1.00  0.00    -0.294 OA
BRANCH  19  21
ATOM     21  C   UNL     1      16.355  33.981  14.317  1.00  0.00     0.018 A 
ATOM     22  C   UNL     1      14.994  33.870  13.963  1.00  0.00     0.012 A 
ATOM     23  C   UNL     1      16.682  34.519  15.576  1.00  0.00     0.012 A 
ATOM     24  C   UNL     1      13.996  34.300  14.844  1.00  0.00     0.001 A 
ATOM     25  C   UNL     1      15.680  34.947  16.451  1.00  0.00     0.001 A 
ATOM     26  C   UNL     1      14.338  34.840  16.084  1.00  0.00     0.000 A 
ENDBRANCH  19  21
ENDBRANCH  18  19
ENDBRANCH   7  18
TORSDOF 7
ENDMDL
MODEL 5
REMARK VINA RESULT:    -8.851      1.512      1.983
REMARK INTER + INTRA:         -12.830
REMARK INTER:                 -11.944
REMARK INTRA:                  -0.886
REMARK UNBOUND:                -0.616
REMARK SMILES CN1[C@@H](CC(=O)c2ccccc2)CCC[C@H]1C[C@H](O)c1ccccc1
REMARK SMILES IDX 1 1 2 2 16 3 15 4 14 5 13 6 3 7 17 8 18 9 19 10 20 12 21 13
REMARK SMILES IDX 25 14 22 15 24 16 23 17 4 18 5 19 6 20 7 21 8 22 12 23 9 24
REMARK SMILES IDX 11 25 10 26
REMARK H PARENT 19 11
REMARK Flexibility Score: inf
ROOT
ATOM      1  C   UNL     1      15.935  34.307  13.117  1.00  0.00     0.106 C 
ATOM      2  N   UNL     1      17.197  33.612  12.757  1.00  0.00    -0.300 NA
ATOM      3  C   UNL     1      17.570  33.961  11.344  1.00  0.00     0.059 C 
ATOM      4  C   UNL     1      18.945  33.366  10.959  1.00  0.00     0.019 C 
ATOM      5  C   UNL     1      20.023  33.803  11.933  1.00  0.00     0.003 C 
ATOM      6  C   UNL     1      19.636  33.357  13.327  1.00  0.00     0.020 C 
ATOM      7  C   UNL     1      18.276  33.957  13.740  1.00  0.00     0.064 C 
ENDROOT
BRANCH   3   8
ATOM      8  C   UNL     1      16.482  33.465  10.340  1.00  0.00     0.055 C 
BRANCH   8   9
ATOM      9  C   UNL     1      16.761  33.771   8.846  1.00  0.00     0.146 C 
BRANCH   9  10
ATOM     10  O   UNL     1      15.787  34.619   8.287  1.00  0.00    -0.388 OA
ATOM     11  H   UNL     1      16.132  34.961   7.422  1.00  0.00     0.211 HD
ENDBRANCH   9  10
BRANCH   9  12
ATOM     12  C   UNL     1      16.878  32.489   8.041  1.00  0.00    -0.020 A 
ATOM     13  C   UNL     1      15.755  31.668   7.816  1.00  0.00     0.006 A 
ATOM     14  C   UNL     1      18.129  32.080   7.541  1.00  0.00     0.006 A 
ATOM     15  C   UNL     1      15.882  30.479   7.091  1.00  0.00     0.000 A 
ATOM     16  C   UNL     1      18.249  30.891   6.817  1.00  0.00     0.000 A 
ATOM     17  C   UNL     1      17.126  30.093   6.590  1.00  0.00     0.000 A 
ENDBRANCH   9  12
ENDBRANCH   8   9
ENDBRANCH   3   8
BRANCH   7  18
ATOM     18  C   UNL     1      17.963  33.477  15.189  1.00  0.00     0.100 C 
BRANCH  18  19
ATOM     19  C   UNL     1      18.104  34.571  16.225  1.00  0.00     0.164 C 
ATOM     20  O   UNL     1      19.247  35.072  16.406  1.00  0.00    -0.294 OA
BRANCH  19  21
ATOM     21  C   UNL     1      16.955  35.118  16.998  1.00  0.00     0.018 A 
ATOM     22  C   UNL     1      15.618  34.821  16.660  1.00  0.00     0.012 A 
ATOM     23  C   UNL     1      17.202  35.951  18.105  1.00  0.00     0.012 A 
ATOM     24  C   UNL     1      14.563  35.359  17.405  1.00  0.00     0.001 A 
ATOM     25  C   UNL     1      16.143  36.485  18.846  1.00  0.00     0.001 A 
ATOM     26  C   UNL     1      14.825  36.191  18.494  1.00  0.00     0.000 A 
ENDBRANCH  19  21
ENDBRANCH  18  19
ENDBRANCH   7  18
TORSDOF 7
ENDMDL
MODEL 6
REMARK VINA RESULT:    -8.744      1.061      9.022
REMARK INTER + INTRA:         -12.682
REMARK INTER:                 -12.020
REMARK INTRA:                  -0.661
REMARK UNBOUND:                -0.616
REMARK SMILES CN1[C@@H](CC(=O)c2ccccc2)CCC[C@H]1C[C@H](O)c1ccccc1
REMARK SMILES IDX 1 1 2 2 16 3 15 4 14 5 13 6 3 7 17 8 18 9 19 10 20 12 21 13
REMARK SMILES IDX 25 14 22 15 24 16 23 17 4 18 5 19 6 20 7 21 8 22 12 23 9 24
REMARK SMILES IDX 11 25 10 26
REMARK H PARENT 19 11
REMARK Flexibility Score: inf
ROOT
ATOM      1  C   UNL     1      15.318  33.823  11.450  1.00  0.00     0.106 C 
ATOM      2  N   UNL     1      16.800  33.774  11.529  1.00  0.00    -0.300 NA
ATOM      3  C   UNL     1      17.211  33.448  12.938  1.00  0.00     0.059 C 
ATOM      4  C   UNL     1      18.742  33.259  13.050  1.00  0.00     0.019 C 
ATOM      5  C   UNL     1      19.236  32.205  12.077  1.00  0.00     0.003 C 
ATOM      6  C   UNL     1      18.867  32.622  10.669  1.00  0.00     0.020 C 
ATOM      7  C   UNL     1      17.340  32.796  10.530  1.00  0.00     0.064 C 
ENDROOT
BRANCH   3   8
ATOM      8  C   UNL     1      16.744  34.561  13.928  1.00  0.00     0.055 C 
BRANCH   8   9
ATOM      9  C   UNL     1      15.830  34.084  15.086  1.00  0.00     0.146 C 
BRANCH   9  10
ATOM     10  O   UNL     1      14.471  34.088  14.724  1.00  0.00    -0.388 OA
ATOM     11  H   UNL     1      14.113  35.003  14.867  1.00  0.00     0.211 HD
ENDBRANCH   9  10
BRANCH   9  12
ATOM     12  C   UNL     1      16.053  34.919  16.334  1.00  0.00    -0.020 A 
ATOM     13  C   UNL     1      14.988  35.221  17.206  1.00  0.00     0.006 A 
ATOM     14  C   UNL     1      17.329  35.442  16.615  1.00  0.00     0.006 A 
ATOM     15  C   UNL     1      15.204  36.009  18.340  1.00  0.00     0.000 A 
ATOM     16  C   UNL     1      17.538  36.230  17.750  1.00  0.00     0.000 A 
ATOM     17  C   UNL     1      16.477  36.511  18.613  1.00  0.00     0.000 A 
ENDBRANCH   9  12
ENDBRANCH   8   9
ENDBRANCH   3   8
BRANCH   7  18
ATOM     18  C   UNL     1      17.038  33.196   9.054  1.00  0.00     0.100 C 
BRANCH  18  19
ATOM     19  C   UNL     1      17.413  32.123   8.055  1.00  0.00     0.164 C 
ATOM     20  O   UNL     1      18.580  32.141   7.576  1.00  0.00    -0.294 OA
BRANCH  19  21
ATOM     21  C   UNL     1      16.493  31.025   7.652  1.00  0.00     0.018 A 
ATOM     22  C   UNL     1      16.956  29.861   7.005  1.00  0.00     0.012 A 
ATOM     23  C   UNL     1      15.117  31.141   7.928  1.00  0.00     0.012 A 
ATOM     24  C   UNL     1      16.061  28.852   6.635  1.00  0.00     0.001 A 
ATOM     25  C   UNL     1      14.227  30.129   7.556  1.00  0.00     0.001 A 
ATOM     26  C   UNL     1      14.699  28.986   6.907  1.00  0.00     0.000 A 
ENDBRANCH  19  21
ENDBRANCH  18  19
ENDBRANCH   7  18
TORSDOF 7
ENDMDL
MODEL 7
REMARK VINA RESULT:    -8.691      1.400      8.747
REMARK INTER + INTRA:         -12.609
REMARK INTER:                 -11.943
REMARK INTRA:                  -0.666
REMARK UNBOUND:                -0.616
REMARK SMILES CN1[C@@H](CC(=O)c2ccccc2)CCC[C@H]1C[C@H](O)c1ccccc1
REMARK SMILES IDX 1 1 2 2 16 3 15 4 14 5 13 6 3 7 17 8 18 9 19 10 20 12 21 13
REMARK SMILES IDX 25 14 22 15 24 16 23 17 4 18 5 19 6 20 7 21 8 22 12 23 9 24
REMARK SMILES IDX 11 25 10 26
REMARK H PARENT 19 11
REMARK Flexibility Score: inf
ROOT
ATOM      1  C   UNL     1      15.648  33.909  12.512  1.00  0.00     0.106 C 
ATOM      2  N   UNL     1      17.115  33.817  12.301  1.00  0.00    -0.300 NA
ATOM      3  C   UNL     1      17.698  32.846  13.289  1.00  0.00     0.059 C 
ATOM      4  C   UNL     1      19.205  32.616  13.033  1.00  0.00     0.019 C 
ATOM      5  C   UNL     1      19.454  32.161  11.606  1.00  0.00     0.003 C 
ATOM      6  C   UNL     1      18.920  33.210  10.655  1.00  0.00     0.020 C 
ATOM      7  C   UNL     1      17.412  33.442  10.880  1.00  0.00     0.064 C 
ENDROOT
BRANCH   3   8
ATOM      8  C   UNL     1      17.483  33.344  14.754  1.00  0.00     0.055 C 
BRANCH   8   9
ATOM      9  C   UNL     1      17.658  34.868  14.974  1.00  0.00     0.146 C 
BRANCH   9  10
ATOM     10  O   UNL     1      19.013  35.240  15.058  1.00  0.00    -0.388 OA
ATOM     11  H   UNL     1      19.062  36.151  15.448  1.00  0.00     0.211 HD
ENDBRANCH   9  10
BRANCH   9  12
ATOM     12  C   UNL     1      16.901  35.330  16.206  1.00  0.00    -0.020 A 
ATOM     13  C   UNL     1      17.546  36.062  17.224  1.00  0.00     0.006 A 
ATOM     14  C   UNL     1      15.543  34.995  16.368  1.00  0.00     0.006 A 
ATOM     15  C   UNL     1      16.840  36.462  18.363  1.00  0.00     0.000 A 
ATOM     16  C   UNL     1      14.844  35.398  17.509  1.00  0.00     0.000 A 
ATOM     17  C   UNL     1      15.491  36.133  18.504  1.00  0.00     0.000 A 
ENDBRANCH   9  12
ENDBRANCH   8   9
ENDBRANCH   3   8
BRANCH   7  18
ATOM     18  C   UNL     1      16.933  34.508   9.850  1.00  0.00     0.100 C 
BRANCH  18  19
ATOM     19  C   UNL     1      16.241  33.908   8.645  1.00  0.00     0.164 C 
ATOM     20  O   UNL     1      15.325  34.577   8.094  1.00  0.00    -0.294 OA
BRANCH  19  21
ATOM     21  C   UNL     1      16.624  32.598   8.051  1.00  0.00     0.018 A 
ATOM     22  C   UNL     1      17.894  32.380   7.479  1.00  0.00     0.012 A 
ATOM     23  C   UNL     1      15.699  31.537   8.065  1.00  0.00     0.012 A 
ATOM     24  C   UNL     1      18.217  31.137   6.924  1.00  0.00     0.001 A 
ATOM     25  C   UNL     1      16.028  30.297   7.508  1.00  0.00     0.001 A 
ATOM     26  C   UNL     1      17.285  30.099   6.936  1.00  0.00     0.000 A 
ENDBRANCH  19  21
ENDBRANCH  18  19
ENDBRANCH   7  18
TORSDOF 7
ENDMDL
MODEL 8
REMARK VINA RESULT:    -8.681      1.727      8.942
REMARK INTER + INTRA:         -12.595
REMARK INTER:                 -11.695
REMARK INTRA:                  -0.900
REMARK UNBOUND:                -0.616
REMARK SMILES CN1[C@@H](CC(=O)c2ccccc2)CCC[C@H]1C[C@H](O)c1ccccc1
REMARK SMILES IDX 1 1 2 2 16 3 15 4 14 5 13 6 3 7 17 8 18 9 19 10 20 12 21 13
REMARK SMILES IDX 25 14 22 15 24 16 23 17 4 18 5 19 6 20 7 21 8 22 12 23 9 24
REMARK SMILES IDX 11 25 10 26
REMARK H PARENT 19 11
REMARK Flexibility Score: inf
ROOT
ATOM      1  C   UNL     1      16.443  34.336  13.576  1.00  0.00     0.106 C 
ATOM      2  N   UNL     1      17.834  34.491  13.079  1.00  0.00    -0.300 NA
ATOM      3  C   UNL     1      18.792  34.315  14.224  1.00  0.00     0.059 C 
ATOM      4  C   UNL     1      20.260  34.340  13.740  1.00  0.00     0.019 C 
ATOM      5  C   UNL     1      20.499  33.300  12.662  1.00  0.00     0.003 C 
ATOM      6  C   UNL     1      19.566  33.571  11.501  1.00  0.00     0.020 C 
ATOM      7  C   UNL     1      18.093  33.531  11.958  1.00  0.00     0.064 C 
ENDROOT
BRANCH   3   8
ATOM      8  C   UNL     1      18.575  35.418  15.308  1.00  0.00     0.055 C 
BRANCH   8   9
ATOM      9  C   UNL     1      18.428  34.904  16.764  1.00  0.00     0.146 C 
BRANCH   9  10
ATOM     10  O   UNL     1      18.564  33.506  16.849  1.00  0.00    -0.388 OA
ATOM     11  H   UNL     1      18.233  33.215  17.738  1.00  0.00     0.211 HD
ENDBRANCH   9  10
BRANCH   9  12
ATOM     12  C   UNL     1      17.108  35.350  17.367  1.00  0.00    -0.020 A 
ATOM     13  C   UNL     1      17.070  36.284  18.421  1.00  0.00     0.006 A 
ATOM     14  C   UNL     1      15.899  34.799  16.904  1.00  0.00     0.006 A 
ATOM     15  C   UNL     1      15.848  36.669  18.981  1.00  0.00     0.000 A 
ATOM     16  C   UNL     1      14.680  35.187  17.468  1.00  0.00     0.000 A 
ATOM     17  C   UNL     1      14.655  36.124  18.504  1.00  0.00     0.000 A 
ENDBRANCH   9  12
ENDBRANCH   8   9
ENDBRANCH   3   8
BRANCH   7  18
ATOM     18  C   UNL     1      17.198  33.789  10.708  1.00  0.00     0.100 C 
BRANCH  18  19
ATOM     19  C   UNL     1      16.496  32.546  10.207  1.00  0.00     0.164 C 
ATOM     20  O   UNL     1      15.641  32.004  10.961  1.00  0.00    -0.294 OA
BRANCH  19  21
ATOM     21  C   UNL     1      16.725  31.967   8.856  1.00  0.00     0.018 A 
ATOM     22  C   UNL     1      15.677  31.409   8.094  1.00  0.00     0.012 A 
ATOM     23  C   UNL     1      18.023  31.979   8.310  1.00  0.00     0.012 A 
ATOM     24  C   UNL     1      15.932  30.867   6.829  1.00  0.00     0.001 A 
ATOM     25  C   UNL     1      18.271  31.436   7.046  1.00  0.00     0.001 A 
ATOM     26  C   UNL     1      17.225  30.879   6.307  1.00  0.00     0.000 A 
ENDBRANCH  19  21
ENDBRANCH  18  19
ENDBRANCH   7  18
TORSDOF 7
ENDMDL
MODEL 9
REMARK VINA RESULT:    -8.664      1.366      2.123
REMARK INTER + INTRA:         -12.572
REMARK INTER:                 -11.895
REMARK INTRA:                  -0.678
REMARK UNBOUND:                -0.616
REMARK SMILES CN1[C@@H](CC(=O)c2ccccc2)CCC[C@H]1C[C@H](O)c1ccccc1
REMARK SMILES IDX 1 1 2 2 16 3 15 4 14 5 13 6 3 7 17 8 18 9 19 10 20 12 21 13
REMARK SMILES IDX 25 14 22 15 24 16 23 17 4 18 5 19 6 20 7 21 8 22 12 23 9 24
REMARK SMILES IDX 11 25 10 26
REMARK H PARENT 19 11
REMARK Flexibility Score: inf
ROOT
ATOM      1  C   UNL     1      15.389  33.626  12.188  1.00  0.00     0.106 C 
ATOM      2  N   UNL     1      16.774  33.093  12.149  1.00  0.00    -0.300 NA
ATOM      3  C   UNL     1      17.309  33.205  10.749  1.00  0.00     0.059 C 
ATOM      4  C   UNL     1      18.795  32.781  10.676  1.00  0.00     0.019 C 
ATOM      5  C   UNL     1      19.640  33.580  11.651  1.00  0.00     0.003 C 
ATOM      6  C   UNL     1      19.108  33.369  13.052  1.00  0.00     0.020 C 
ATOM      7  C   UNL     1      17.631  33.805  13.152  1.00  0.00     0.064 C 
ENDROOT
BRANCH   3   8
ATOM      8  C   UNL     1      16.466  32.341   9.758  1.00  0.00     0.055 C 
BRANCH   8   9
ATOM      9  C   UNL     1      17.168  31.977   8.425  1.00  0.00     0.146 C 
BRANCH   9  10
ATOM     10  O   UNL     1      17.263  33.081   7.557  1.00  0.00    -0.388 OA
ATOM     11  H   UNL     1      18.098  32.990   7.028  1.00  0.00     0.211 HD
ENDBRANCH   9  10
BRANCH   9  12
ATOM     12  C   UNL     1      16.468  30.818   7.740  1.00  0.00    -0.020 A 
ATOM     13  C   UNL     1      17.198  29.846   7.028  1.00  0.00     0.006 A 
ATOM     14  C   UNL     1      15.064  30.723   7.773  1.00  0.00     0.006 A 
ATOM     15  C   UNL     1      16.537  28.795   6.384  1.00  0.00     0.000 A 
ATOM     16  C   UNL     1      14.409  29.670   7.127  1.00  0.00     0.000 A 
ATOM     17  C   UNL     1      15.145  28.706   6.435  1.00  0.00     0.000 A 
ENDBRANCH   9  12
ENDBRANCH   8   9
ENDBRANCH   3   8
BRANCH   7  18
ATOM     18  C   UNL     1      17.167  33.584  14.623  1.00  0.00     0.100 C 
BRANCH  18  19
ATOM     19  C   UNL     1      16.636  34.841  15.278  1.00  0.00     0.164 C 
ATOM     20  O   UNL     1      15.481  35.234  14.958  1.00  0.00    -0.294 OA
BRANCH  19  21
ATOM     21  C   UNL     1      17.387  35.602  16.314  1.00  0.00     0.018 A 
ATOM     22  C   UNL     1      18.671  36.131  16.070  1.00  0.00     0.012 A 
ATOM     23  C   UNL     1      16.800  35.810  17.578  1.00  0.00     0.012 A 
ATOM     24  C   UNL     1      19.349  36.834  17.071  1.00  0.00     0.001 A 
ATOM     25  C   UNL     1      17.484  36.514  18.573  1.00  0.00     0.001 A 
ATOM     26  C   UNL     1      18.758  37.024  18.320  1.00  0.00     0.000 A 
ENDBRANCH  19  21
ENDBRANCH  18  19
ENDBRANCH   7  18
TORSDOF 7
ENDMDL
MODEL 10
REMARK VINA RESULT:    -8.585      2.178      3.925
REMARK INTER + INTRA:         -12.463
REMARK INTER:                 -11.564
REMARK INTRA:                  -0.899
REMARK UNBOUND:                -0.616
REMARK SMILES CN1[C@@H](CC(=O)c2ccccc2)CCC[C@H]1C[C@H](O)c1ccccc1
REMARK SMILES IDX 1 1 2 2 16 3 15 4 14 5 13 6 3 7 17 8 18 9 19 10 20 12 21 13
REMARK SMILES IDX 25 14 22 15 24 16 23 17 4 18 5 19 6 20 7 21 8 22 12 23 9 24
REMARK SMILES IDX 11 25 10 26
REMARK H PARENT 19 11
REMARK Flexibility Score: inf
ROOT
ATOM      1  C   UNL     1      19.243  34.292  14.255  1.00  0.00     0.106 C 
ATOM      2  N   UNL     1      17.824  34.648  14.002  1.00  0.00    -0.300 NA
ATOM      3  C   UNL     1      17.256  33.716  12.969  1.00  0.00     0.059 C 
ATOM      4  C   UNL     1      15.743  33.961  12.758  1.00  0.00     0.019 C 
ATOM      5  C   UNL     1      14.985  33.854  14.068  1.00  0.00     0.003 C 
ATOM      6  C   UNL     1      15.543  34.867  15.045  1.00  0.00     0.020 C 
ATOM      7  C   UNL     1      17.049  34.628  15.285  1.00  0.00     0.064 C 
ENDROOT
BRANCH   3   8
ATOM      8  C   UNL     1      18.007  33.866  11.608  1.00  0.00     0.055 C 
BRANCH   8   9
ATOM      9  C   UNL     1      18.344  32.539  10.881  1.00  0.00     0.146 C 
BRANCH   9  10
ATOM     10  O   UNL     1      19.732  32.347  10.744  1.00  0.00    -0.388 OA
ATOM     11  H   UNL     1      20.019  31.669  11.410  1.00  0.00     0.211 HD
ENDBRANCH   9  10
BRANCH   9  12
ATOM     12  C   UNL     1      17.661  32.471   9.527  1.00  0.00    -0.020 A 
ATOM     13  C   UNL     1      18.025  31.497   8.577  1.00  0.00     0.006 A 
ATOM     14  C   UNL     1      16.674  33.416   9.187  1.00  0.00     0.006 A 
ATOM     15  C   UNL     1      17.401  31.460   7.326  1.00  0.00     0.000 A 
ATOM     16  C   UNL     1      16.055  33.374   7.935  1.00  0.00     0.000 A 
ATOM     17  C   UNL     1      16.416  32.395   7.006  1.00  0.00     0.000 A 
ENDBRANCH   9  12
ENDBRANCH   8   9
ENDBRANCH   3   8
BRANCH   7  18
ATOM     18  C   UNL     1      17.541  35.687  16.317  1.00  0.00     0.100 C 
BRANCH  18  19
ATOM     19  C   UNL     1      17.671  35.138  17.721  1.00  0.00     0.164 C 
ATOM     20  O   UNL     1      17.471  33.905  17.896  1.00  0.00    -0.294 OA
BRANCH  19  21
ATOM     21  C   UNL     1      18.072  35.969  18.889  1.00  0.00     0.018 A 
ATOM     22  C   UNL     1      18.793  35.433  19.976  1.00  0.00     0.012 A 
ATOM     23  C   UNL     1      17.731  37.335  18.914  1.00  0.00     0.012 A 
ATOM     24  C   UNL     1      19.146  36.243  21.060  1.00  0.00     0.001 A 
ATOM     25  C   UNL     1      18.088  38.140  20.000  1.00  0.00     0.001 A 
ATOM     26  C   UNL     1      18.793  37.593  21.073  1.00  0.00     0.000 A 
ENDBRANCH  19  21
ENDBRANCH  18  19
ENDBRANCH   7  18
TORSDOF 7
ENDMDL
MODEL 11
REMARK VINA RESULT:    -8.506      2.419      4.116
REMARK INTER + INTRA:         -12.354
REMARK INTER:                 -11.516
REMARK INTRA:                  -0.837
REMARK UNBOUND:                -0.616
REMARK SMILES CN1[C@@H](CC(=O)c2ccccc2)CCC[C@H]1C[C@H](O)c1ccccc1
REMARK SMILES IDX 1 1 2 2 16 3 15 4 14 5 13 6 3 7 17 8 18 9 19 10 20 12 21 13
REMARK SMILES IDX 25 14 22 15 24 16 23 17 4 18 5 19 6 20 7 21 8 22 12 23 9 24
REMARK SMILES IDX 11 25 10 26
REMARK H PARENT 19 11
REMARK Flexibility Score: inf
ROOT
ATOM      1  C   UNL     1      19.828  34.465  14.387  1.00  0.00     0.106 C 
ATOM      2  N   UNL     1      18.404  34.864  14.261  1.00  0.00    -0.300 NA
ATOM      3  C   UNL     1      17.711  33.934  13.304  1.00  0.00     0.059 C 
ATOM      4  C   UNL     1      16.194  34.225  13.232  1.00  0.00     0.019 C 
ATOM      5  C   UNL     1      15.560  34.166  14.609  1.00  0.00     0.003 C 
ATOM      6  C   UNL     1      16.240  35.177  15.508  1.00  0.00     0.020 C 
ATOM      7  C   UNL     1      17.753  34.892  15.611  1.00  0.00     0.064 C 
ENDROOT
BRANCH   3   8
ATOM      8  C   UNL     1      18.335  34.035  11.876  1.00  0.00     0.055 C 
BRANCH   8   9
ATOM      9  C   UNL     1      18.462  32.696  11.106  1.00  0.00     0.146 C 
BRANCH   9  10
ATOM     10  O   UNL     1      19.804  32.313  10.926  1.00  0.00    -0.388 OA
ATOM     11  H   UNL     1      20.368  32.862  11.530  1.00  0.00     0.211 HD
ENDBRANCH   9  10
BRANCH   9  12
ATOM     12  C   UNL     1      17.744  32.766   9.771  1.00  0.00    -0.020 A 
ATOM     13  C   UNL     1      16.864  33.825   9.474  1.00  0.00     0.006 A 
ATOM     14  C   UNL     1      17.918  31.742   8.820  1.00  0.00     0.006 A 
ATOM     15  C   UNL     1      16.193  33.866   8.248  1.00  0.00     0.000 A 
ATOM     16  C   UNL     1      17.245  31.788   7.597  1.00  0.00     0.000 A 
ATOM     17  C   UNL     1      16.384  32.850   7.310  1.00  0.00     0.000 A 
ENDBRANCH   9  12
ENDBRANCH   8   9
ENDBRANCH   3   8
BRANCH   7  18
ATOM     18  C   UNL     1      18.374  35.951  16.571  1.00  0.00     0.100 C 
BRANCH  18  19
ATOM     19  C   UNL     1      18.231  35.590  18.033  1.00  0.00     0.164 C 
ATOM     20  O   UNL     1      17.968  34.391  18.325  1.00  0.00    -0.294 OA
BRANCH  19  21
ATOM     21  C   UNL     1      18.435  36.565  19.139  1.00  0.00     0.018 A 
ATOM     22  C   UNL     1      17.564  37.654  19.346  1.00  0.00     0.012 A 
ATOM     23  C   UNL     1      19.526  36.397  20.014  1.00  0.00     0.012 A 
ATOM     24  C   UNL     1      17.793  38.555  20.392  1.00  0.00     0.001 A 
ATOM     25  C   UNL     1      19.748  37.300  21.057  1.00  0.00     0.001 A 
ATOM     26  C   UNL     1      18.883  38.379  21.245  1.00  0.00     0.000 A 
ENDBRANCH  19  21
ENDBRANCH  18  19
ENDBRANCH   7  18
TORSDOF 7
ENDMDL
MODEL 12
REMARK VINA RESULT:    -8.467      1.928      8.871
REMARK INTER + INTRA:         -12.300
REMARK INTER:                 -11.524
REMARK INTRA:                  -0.777
REMARK UNBOUND:                -0.616
REMARK SMILES CN1[C@@H](CC(=O)c2ccccc2)CCC[C@H]1C[C@H](O)c1ccccc1
REMARK SMILES IDX 1 1 2 2 16 3 15 4 14 5 13 6 3 7 17 8 18 9 19 10 20 12 21 13
REMARK SMILES IDX 25 14 22 15 24 16 23 17 4 18 5 19 6 20 7 21 8 22 12 23 9 24
REMARK SMILES IDX 11 25 10 26
REMARK H PARENT 19 11
REMARK Flexibility Score: inf
ROOT
ATOM      1  C   UNL     1      17.343  34.127  13.691  1.00  0.00     0.106 C 
ATOM      2  N   UNL     1      18.753  34.553  13.506  1.00  0.00    -0.300 NA
ATOM      3  C   UNL     1      19.461  34.514  14.831  1.00  0.00     0.059 C 
ATOM      4  C   UNL     1      20.968  34.826  14.676  1.00  0.00     0.019 C 
ATOM      5  C   UNL     1      21.621  33.887  13.679  1.00  0.00     0.003 C 
ATOM      6  C   UNL     1      20.922  34.025  12.343  1.00  0.00     0.020 C 
ATOM      7  C   UNL     1      19.420  33.698  12.471  1.00  0.00     0.064 C 
ENDROOT
BRANCH   3   8
ATOM      8  C   UNL     1      18.816  35.518  15.839  1.00  0.00     0.055 C 
BRANCH   8   9
ATOM      9  C   UNL     1      18.378  34.913  17.197  1.00  0.00     0.146 C 
BRANCH   9  10
ATOM     10  O   UNL     1      18.554  33.518  17.238  1.00  0.00    -0.388 OA
ATOM     11  H   UNL     1      18.804  33.262  18.163  1.00  0.00     0.211 HD
ENDBRANCH   9  10
BRANCH   9  12
ATOM     12  C   UNL     1      16.941  35.279  17.518  1.00  0.00    -0.020 A 
ATOM     13  C   UNL     1      15.872  34.760  16.761  1.00  0.00     0.006 A 
ATOM     14  C   UNL     1      16.658  36.184  18.559  1.00  0.00     0.006 A 
ATOM     15  C   UNL     1      14.554  35.122  17.054  1.00  0.00     0.000 A 
ATOM     16  C   UNL     1      15.338  36.543  18.848  1.00  0.00     0.000 A 
ATOM     17  C   UNL     1      14.287  36.011  18.097  1.00  0.00     0.000 A 
ENDBRANCH   9  12
ENDBRANCH   8   9
ENDBRANCH   3   8
BRANCH   7  18
ATOM     18  C   UNL     1      18.780  33.833  11.057  1.00  0.00     0.100 C 
BRANCH  18  19
ATOM     19  C   UNL     1      18.428  32.502  10.429  1.00  0.00     0.164 C 
ATOM     20  O   UNL     1      18.785  31.451  11.028  1.00  0.00    -0.294 OA
BRANCH  19  21
ATOM     21  C   UNL     1      17.640  32.374   9.173  1.00  0.00     0.018 A 
ATOM     22  C   UNL     1      16.648  33.310   8.814  1.00  0.00     0.012 A 
ATOM     23  C   UNL     1      17.891  31.292   8.307  1.00  0.00     0.012 A 
ATOM     24  C   UNL     1      15.921  33.153   7.628  1.00  0.00     0.001 A 
ATOM     25  C   UNL     1      17.162  31.141   7.124  1.00  0.00     0.001 A 
ATOM     26  C   UNL     1      16.176  32.070   6.787  1.00  0.00     0.000 A 
ENDBRANCH  19  21
ENDBRANCH  18  19
ENDBRANCH   7  18
TORSDOF 7
ENDMDL
MODEL 13
REMARK VINA RESULT:    -8.375      3.903      5.558
REMARK INTER + INTRA:         -12.174
REMARK INTER:                 -10.549
REMARK INTRA:                  -1.625
REMARK UNBOUND:                -0.616
REMARK SMILES CN1[C@@H](CC(=O)c2ccccc2)CCC[C@H]1C[C@H](O)c1ccccc1
REMARK SMILES IDX 1 1 2 2 16 3 15 4 14 5 13 6 3 7 17 8 18 9 19 10 20 12 21 13
REMARK SMILES IDX 25 14 22 15 24 16 23 17 4 18 5 19 6 20 7 21 8 22 12 23 9 24
REMARK SMILES IDX 11 25 10 26
REMARK H PARENT 19 11
REMARK Flexibility Score: inf
ROOT
ATOM      1  C   UNL     1      21.077  36.510  14.828  1.00  0.00     0.106 C 
ATOM      2  N   UNL     1      20.986  35.171  15.463  1.00  0.00    -0.300 NA
ATOM      3  C   UNL     1      22.116  34.311  14.970  1.00  0.00     0.059 C 
ATOM      4  C   UNL     1      22.144  32.945  15.696  1.00  0.00     0.019 C 
ATOM      5  C   UNL     1      22.210  33.127  17.201  1.00  0.00     0.003 C 
ATOM      6  C   UNL     1      21.010  33.930  17.653  1.00  0.00     0.020 C 
ATOM      7  C   UNL     1      20.973  35.306  16.956  1.00  0.00     0.064 C 
ENDROOT
BRANCH   3   8
ATOM      8  C   UNL     1      22.015  34.085  13.428  1.00  0.00     0.055 C 
BRANCH   8   9
ATOM      9  C   UNL     1      21.377  32.742  12.989  1.00  0.00     0.146 C 
BRANCH   9  10
ATOM     10  O   UNL     1      22.053  32.166  11.898  1.00  0.00    -0.388 OA
ATOM     11  H   UNL     1      21.428  31.550  11.434  1.00  0.00     0.211 HD
ENDBRANCH   9  10
BRANCH   9  12
ATOM     12  C   UNL     1      19.903  32.919  12.670  1.00  0.00    -0.020 A 
ATOM     13  C   UNL     1      18.908  32.462  13.557  1.00  0.00     0.006 A 
ATOM     14  C   UNL     1      19.510  33.509  11.454  1.00  0.00     0.006 A 
ATOM     15  C   UNL     1      17.555  32.613  13.240  1.00  0.00     0.000 A 
ATOM     16  C   UNL     1      18.155  33.656  11.143  1.00  0.00     0.000 A 
ATOM     17  C   UNL     1      17.179  33.211  12.036  1.00  0.00     0.000 A 
ENDBRANCH   9  12
ENDBRANCH   8   9
ENDBRANCH   3   8
BRANCH   7  18
ATOM     18  C   UNL     1      19.732  36.080  17.492  1.00  0.00     0.100 C 
BRANCH  18  19
ATOM     19  C   UNL     1      18.561  35.180  17.822  1.00  0.00     0.164 C 
ATOM     20  O   UNL     1      18.555  34.603  18.944  1.00  0.00    -0.294 OA
BRANCH  19  21
ATOM     21  C   UNL     1      17.399  34.985  16.913  1.00  0.00     0.018 A 
ATOM     22  C   UNL     1      17.346  35.570  15.631  1.00  0.00     0.012 A 
ATOM     23  C   UNL     1      16.318  34.188  17.335  1.00  0.00     0.012 A 
ATOM     24  C   UNL     1      16.233  35.371  14.806  1.00  0.00     0.001 A 
ATOM     25  C   UNL     1      15.209  33.993  16.507  1.00  0.00     0.001 A 
ATOM     26  C   UNL     1      15.167  34.586  15.244  1.00  0.00     0.000 A 
ENDBRANCH  19  21
ENDBRANCH  18  19
ENDBRANCH   7  18
TORSDOF 7
ENDMDL
MODEL 14
REMARK VINA RESULT:    -8.356      3.788      5.353
REMARK INTER + INTRA:         -12.146
REMARK INTER:                 -10.930
REMARK INTRA:                  -1.216
REMARK UNBOUND:                -0.616
REMARK SMILES CN1[C@@H](CC(=O)c2ccccc2)CCC[C@H]1C[C@H](O)c1ccccc1
REMARK SMILES IDX 1 1 2 2 16 3 15 4 14 5 13 6 3 7 17 8 18 9 19 10 20 12 21 13
REMARK SMILES IDX 25 14 22 15 24 16 23 17 4 18 5 19 6 20 7 21 8 22 12 23 9 24
REMARK SMILES IDX 11 25 10 26
REMARK H PARENT 19 11
REMARK Flexibility Score: inf
ROOT
ATOM      1  C   UNL     1      21.024  36.847  14.813  1.00  0.00     0.106 C 
ATOM      2  N   UNL     1      20.580  35.573  15.433  1.00  0.00    -0.300 NA
ATOM      3  C   UNL     1      21.414  34.443  14.899  1.00  0.00     0.059 C 
ATOM      4  C   UNL     1      21.079  33.109  15.606  1.00  0.00     0.019 C 
ATOM      5  C   UNL     1      21.228  33.236  17.110  1.00  0.00     0.003 C 
ATOM      6  C   UNL     1      20.309  34.331  17.606  1.00  0.00     0.020 C 
ATOM      7  C   UNL     1      20.639  35.676  16.928  1.00  0.00     0.064 C 
ENDROOT
BRANCH   3   8
ATOM      8  C   UNL     1      21.219  34.286  13.357  1.00  0.00     0.055 C 
BRANCH   8   9
ATOM      9  C   UNL     1      20.376  33.064  12.912  1.00  0.00     0.146 C 
BRANCH   9  10
ATOM     10  O   UNL     1      20.992  32.346  11.871  1.00  0.00    -0.388 OA
ATOM     11  H   UNL     1      20.968  31.381  12.101  1.00  0.00     0.211 HD
ENDBRANCH   9  10
BRANCH   9  12
ATOM     12  C   UNL     1      18.974  33.487  12.511  1.00  0.00    -0.020 A 
ATOM     13  C   UNL     1      17.920  33.487  13.446  1.00  0.00     0.006 A 
ATOM     14  C   UNL     1      18.699  33.848  11.178  1.00  0.00     0.006 A 
ATOM     15  C   UNL     1      16.629  33.859  13.058  1.00  0.00     0.000 A 
ATOM     16  C   UNL     1      17.407  34.218  10.796  1.00  0.00     0.000 A 
ATOM     17  C   UNL     1      16.374  34.226  11.735  1.00  0.00     0.000 A 
ENDBRANCH   9  12
ENDBRANCH   8   9
ENDBRANCH   3   8
BRANCH   7  18
ATOM     18  C   UNL     1      19.674  36.754  17.508  1.00  0.00     0.100 C 
BRANCH  18  19
ATOM     19  C   UNL     1      18.611  36.177  18.418  1.00  0.00     0.164 C 
ATOM     20  O   UNL     1      18.908  35.989  19.630  1.00  0.00    -0.294 OA
BRANCH  19  21
ATOM     21  C   UNL     1      17.226  35.874  17.967  1.00  0.00     0.018 A 
ATOM     22  C   UNL     1      16.967  35.145  16.787  1.00  0.00     0.012 A 
ATOM     23  C   UNL     1      16.136  36.317  18.739  1.00  0.00     0.012 A 
ATOM     24  C   UNL     1      15.651  34.885  16.390  1.00  0.00     0.001 A 
ATOM     25  C   UNL     1      14.823  36.053  18.337  1.00  0.00     0.001 A 
ATOM     26  C   UNL     1      14.581  35.339  17.162  1.00  0.00     0.000 A 
ENDBRANCH  19  21
ENDBRANCH  18  19
ENDBRANCH   7  18
TORSDOF 7
ENDMDL
