MODEL 1
REMARK VINA RESULT:    -8.429      0.000      0.000
REMARK INTER + INTRA:         -14.000
REMARK INTER:                 -12.617
REMARK INTRA:                  -1.383
REMARK UNBOUND:                -1.383
REMARK SMILES CC[C@H](CO)Nc1nc(NCc2ccccc2)c2ncn(C(C)C)c2n1
REMARK SMILES IDX 7 1 8 2 9 3 18 4 19 5 20 6 21 7 25 8 26 9 6 10 3 12 2 13
REMARK SMILES IDX 1 14 4 15 5 16 10 18 11 20 12 21 13 22 17 23 14 24 16 25
REMARK SMILES IDX 15 26 22 27 23 28 24 29
REMARK H PARENT 6 11 5 17 10 19
REMARK Flexibility Score: inf
ROOT
ATOM      1  C   UNL     1      10.140   9.398  19.119  1.00  0.00     0.227 A 
ATOM      2  N   UNL     1      10.775   8.746  18.091  1.00  0.00    -0.193 NA
ATOM      3  C   UNL     1      12.087   8.367  18.169  1.00  0.00     0.160 A 
ATOM      4  C   UNL     1      12.766   8.673  19.353  1.00  0.00     0.150 A 
ATOM      5  N   UNL     1      14.042   8.429  19.710  1.00  0.00    -0.231 NA
ATOM      6  C   UNL     1      14.118   8.953  20.963  1.00  0.00     0.202 A 
ATOM      7  N   UNL     1      12.951   9.506  21.387  1.00  0.00    -0.313 N 
ATOM      8  C   UNL     1      12.118   9.317  20.356  1.00  0.00     0.167 A 
ATOM      9  N   UNL     1      10.819   9.687  20.269  1.00  0.00    -0.193 NA
ENDROOT
BRANCH   1  10
ATOM     10  N   UNL     1       8.761   9.778  19.001  1.00  0.00    -0.349 N 
ATOM     11  H   UNL     1       8.035   9.056  19.213  1.00  0.00     0.164 HD
BRANCH  10  12
ATOM     12  C   UNL     1       8.326  11.069  18.456  1.00  0.00     0.107 C 
BRANCH  12  13
ATOM     13  C   UNL     1       9.245  11.489  17.295  1.00  0.00     0.024 C 
ATOM     14  C   UNL     1       8.983  12.928  16.853  1.00  0.00     0.006 C 
ENDBRANCH  12  13
BRANCH  12  15
ATOM     15  C   UNL     1       8.343  12.126  19.567  1.00  0.00     0.180 C 
BRANCH  15  16
ATOM     16  O   UNL     1       8.181  11.507  20.813  1.00  0.00    -0.394 OA
ATOM     17  H   UNL     1       7.374  11.916  21.221  1.00  0.00     0.210 HD
ENDBRANCH  15  16
ENDBRANCH  12  15
ENDBRANCH  10  12
ENDBRANCH   1  10
BRANCH   3  18
ATOM     18  N   UNL     1      12.690   7.688  17.054  1.00  0.00    -0.364 N 
ATOM     19  H   UNL     1      12.429   6.686  16.911  1.00  0.00     0.162 HD
BRANCH  18  20
ATOM     20  C   UNL     1      13.635   8.314  16.127  1.00  0.00     0.150 C 
BRANCH  20  21
ATOM     21  C   UNL     1      13.204   9.718  15.799  1.00  0.00    -0.029 A 
ATOM     22  C   UNL     1      13.775  10.810  16.474  1.00  0.00     0.005 A 
ATOM     23  C   UNL     1      12.180   9.946  14.865  1.00  0.00     0.005 A 
ATOM     24  C   UNL     1      13.347  12.111  16.197  1.00  0.00     0.000 A 
ATOM     25  C   UNL     1      11.755  11.249  14.590  1.00  0.00     0.000 A 
ATOM     26  C   UNL     1      12.340  12.331  15.253  1.00  0.00     0.000 A 
ENDBRANCH  20  21
ENDBRANCH  18  20
ENDBRANCH   3  18
BRANCH   7  27
ATOM     27  C   UNL     1      12.669  10.159  22.669  1.00  0.00     0.084 C 
ATOM     28  C   UNL     1      12.864   9.172  23.824  1.00  0.00     0.031 C 
ATOM     29  C   UNL     1      13.554  11.396  22.843  1.00  0.00     0.031 C 
ENDBRANCH   7  27
TORSDOF 9
ENDMDL
MODEL 2
REMARK VINA RESULT:    -8.048      1.812      4.627
REMARK INTER + INTRA:         -13.430
REMARK INTER:                 -12.766
REMARK INTRA:                  -0.664
REMARK UNBOUND:                -1.383
REMARK SMILES CC[C@H](CO)Nc1nc(NCc2ccccc2)c2ncn(C(C)C)c2n1
REMARK SMILES IDX 7 1 8 2 9 3 18 4 19 5 20 6 21 7 25 8 26 9 6 10 3 12 2 13
REMARK SMILES IDX 1 14 4 15 5 16 10 18 11 20 12 21 13 22 17 23 14 24 16 25
REMARK SMILES IDX 15 26 22 27 23 28 24 29
REMARK H PARENT 6 11 5 17 10 19
REMARK Flexibility Score: inf
ROOT
ATOM      1  C   UNL     1      13.056   9.089  20.440  1.00  0.00     0.227 A 
ATOM      2  N   UNL     1      13.527   8.536  19.275  1.00  0.00    -0.193 NA
ATOM      3  C   UNL     1      12.729   8.355  18.180  1.00  0.00     0.160 A 
ATOM      4  C   UNL     1      11.394   8.759  18.295  1.00  0.00     0.150 A 
ATOM      5  N   UNL     1      10.391   8.705  17.397  1.00  0.00    -0.231 NA
ATOM      6  C   UNL     1       9.340   9.238  18.076  1.00  0.00     0.202 A 
ATOM      7  N   UNL     1       9.653   9.616  19.343  1.00  0.00    -0.313 N 
ATOM      8  C   UNL     1      10.951   9.303  19.455  1.00  0.00     0.167 A 
ATOM      9  N   UNL     1      11.750   9.479  20.534  1.00  0.00    -0.193 NA
ENDROOT
BRANCH   1  10
ATOM     10  N   UNL     1      13.925   9.266  21.568  1.00  0.00    -0.349 N 
ATOM     11  H   UNL     1      14.644  10.024  21.518  1.00  0.00     0.164 HD
BRANCH  10  12
ATOM     12  C   UNL     1      13.956   8.349  22.713  1.00  0.00     0.107 C 
BRANCH  12  13
ATOM     13  C   UNL     1      13.886   6.890  22.223  1.00  0.00     0.024 C 
ATOM     14  C   UNL     1      13.325   5.956  23.294  1.00  0.00     0.006 C 
ENDBRANCH  12  13
BRANCH  12  15
ATOM     15  C   UNL     1      12.783   8.659  23.650  1.00  0.00     0.180 C 
BRANCH  15  16
ATOM     16  O   UNL     1      13.162   9.640  24.576  1.00  0.00    -0.394 OA
ATOM     17  H   UNL     1      13.699  10.303  24.071  1.00  0.00     0.210 HD
ENDBRANCH  15  16
ENDBRANCH  12  15
ENDBRANCH  10  12
ENDBRANCH   1  10
BRANCH   3  18
ATOM     18  N   UNL     1      13.287   7.770  16.992  1.00  0.00    -0.364 N 
ATOM     19  H   UNL     1      13.155   6.741  16.862  1.00  0.00     0.162 HD
BRANCH  18  20
ATOM     20  C   UNL     1      14.020   8.523  15.972  1.00  0.00     0.150 C 
BRANCH  20  21
ATOM     21  C   UNL     1      13.365   9.856  15.727  1.00  0.00    -0.029 A 
ATOM     22  C   UNL     1      13.789  10.994  16.432  1.00  0.00     0.005 A 
ATOM     23  C   UNL     1      12.280   9.960  14.841  1.00  0.00     0.005 A 
ATOM     24  C   UNL     1      13.155  12.224  16.231  1.00  0.00     0.000 A 
ATOM     25  C   UNL     1      11.648  11.191  14.642  1.00  0.00     0.000 A 
ATOM     26  C   UNL     1      12.087  12.323  15.334  1.00  0.00     0.000 A 
ENDBRANCH  20  21
ENDBRANCH  18  20
ENDBRANCH   3  18
BRANCH   7  27
ATOM     27  C   UNL     1       8.779  10.221  20.353  1.00  0.00     0.084 C 
ATOM     28  C   UNL     1       8.040  11.426  19.765  1.00  0.00     0.031 C 
ATOM     29  C   UNL     1       7.796   9.181  20.898  1.00  0.00     0.031 C 
ENDBRANCH   7  27
TORSDOF 9
ENDMDL
MODEL 3
REMARK VINA RESULT:    -7.535      2.453      3.351
REMARK INTER + INTRA:         -12.662
REMARK INTER:                 -11.818
REMARK INTRA:                  -0.844
REMARK UNBOUND:                -1.383
REMARK SMILES CC[C@H](CO)Nc1nc(NCc2ccccc2)c2ncn(C(C)C)c2n1
REMARK SMILES IDX 7 1 8 2 9 3 18 4 19 5 20 6 21 7 25 8 26 9 6 10 3 12 2 13
REMARK SMILES IDX 1 14 4 15 5 16 10 18 11 20 12 21 13 22 17 23 14 24 16 25
REMARK SMILES IDX 15 26 22 27 23 28 24 29
REMARK H PARENT 6 11 5 17 10 19
REMARK Flexibility Score: inf
ROOT
ATOM      1  C   UNL     1      10.067  10.075  17.589  1.00  0.00     0.227 A 
ATOM      2  N   UNL     1      10.422  10.530  16.344  1.00  0.00    -0.193 NA
ATOM      3  C   UNL     1      11.727  10.632  15.950  1.00  0.00     0.160 A 
ATOM      4  C   UNL     1      12.701  10.252  16.880  1.00  0.00     0.150 A 
ATOM      5  N   UNL     1      14.045  10.246  16.776  1.00  0.00    -0.231 NA
ATOM      6  C   UNL     1      14.446   9.778  17.988  1.00  0.00     0.202 A 
ATOM      7  N   UNL     1      13.413   9.498  18.826  1.00  0.00    -0.313 N 
ATOM      8  C   UNL     1      12.328   9.805  18.104  1.00  0.00     0.167 A 
ATOM      9  N   UNL     1      11.032   9.706  18.484  1.00  0.00    -0.193 NA
ENDROOT
BRANCH   1  10
ATOM     10  N   UNL     1       8.686   9.978  17.965  1.00  0.00    -0.349 N 
ATOM     11  H   UNL     1       8.041   9.453  17.331  1.00  0.00     0.164 HD
BRANCH  10  12
ATOM     12  C   UNL     1       8.109  10.700  19.105  1.00  0.00     0.107 C 
BRANCH  12  13
ATOM     13  C   UNL     1       8.897  11.998  19.361  1.00  0.00     0.024 C 
ATOM     14  C   UNL     1       8.307  13.184  18.599  1.00  0.00     0.006 C 
ENDBRANCH  12  13
BRANCH  12  15
ATOM     15  C   UNL     1       8.132   9.802  20.346  1.00  0.00     0.180 C 
BRANCH  15  16
ATOM     16  O   UNL     1       9.369   9.917  20.993  1.00  0.00    -0.394 OA
ATOM     17  H   UNL     1       9.214  10.494  21.784  1.00  0.00     0.210 HD
ENDBRANCH  15  16
ENDBRANCH  12  15
ENDBRANCH  10  12
ENDBRANCH   1  10
BRANCH   3  18
ATOM     18  N   UNL     1      12.028  11.118  14.631  1.00  0.00    -0.364 N 
ATOM     19  H   UNL     1      11.886  10.453  13.836  1.00  0.00     0.162 HD
BRANCH  18  20
ATOM     20  C   UNL     1      12.515  12.468  14.344  1.00  0.00     0.150 C 
BRANCH  20  21
ATOM     21  C   UNL     1      12.276  12.823  12.901  1.00  0.00    -0.029 A 
ATOM     22  C   UNL     1      13.350  13.191  12.074  1.00  0.00     0.005 A 
ATOM     23  C   UNL     1      10.969  12.854  12.387  1.00  0.00     0.005 A 
ATOM     24  C   UNL     1      13.121  13.556  10.745  1.00  0.00     0.000 A 
ATOM     25  C   UNL     1      10.744  13.221  11.056  1.00  0.00     0.000 A 
ATOM     26  C   UNL     1      11.820  13.568  10.235  1.00  0.00     0.000 A 
ENDBRANCH  20  21
ENDBRANCH  18  20
ENDBRANCH   3  18
BRANCH   7  27
ATOM     27  C   UNL     1      13.471   8.983  20.198  1.00  0.00     0.084 C 
ATOM     28  C   UNL     1      14.051   7.566  20.211  1.00  0.00     0.031 C 
ATOM     29  C   UNL     1      14.288   9.924  21.086  1.00  0.00     0.031 C 
ENDBRANCH   7  27
TORSDOF 9
ENDMDL
MODEL 4
REMARK VINA RESULT:    -7.359      2.165      3.194
REMARK INTER + INTRA:         -12.399
REMARK INTER:                 -11.533
REMARK INTRA:                  -0.866
REMARK UNBOUND:                -1.383
REMARK SMILES CC[C@H](CO)Nc1nc(NCc2ccccc2)c2ncn(C(C)C)c2n1
REMARK SMILES IDX 7 1 8 2 9 3 18 4 19 5 20 6 21 7 25 8 26 9 6 10 3 12 2 13
REMARK SMILES IDX 1 14 4 15 5 16 10 18 11 20 12 21 13 22 17 23 14 24 16 25
REMARK SMILES IDX 15 26 22 27 23 28 24 29
REMARK H PARENT 6 11 5 17 10 19
REMARK Flexibility Score: inf
ROOT
ATOM      1  C   UNL     1      10.010   9.917  17.700  1.00  0.00     0.227 A 
ATOM      2  N   UNL     1      10.324  10.310  16.422  1.00  0.00    -0.193 NA
ATOM      3  C   UNL     1      11.615  10.375  15.977  1.00  0.00     0.160 A 
ATOM      4  C   UNL     1      12.618  10.022  16.887  1.00  0.00     0.150 A 
ATOM      5  N   UNL     1      13.956   9.991  16.735  1.00  0.00    -0.231 NA
ATOM      6  C   UNL     1      14.397   9.572  17.952  1.00  0.00     0.202 A 
ATOM      7  N   UNL     1      13.392   9.346  18.838  1.00  0.00    -0.313 N 
ATOM      8  C   UNL     1      12.284   9.637  18.143  1.00  0.00     0.167 A 
ATOM      9  N   UNL     1      11.002   9.575  18.574  1.00  0.00    -0.193 NA
ENDROOT
BRANCH   1  10
ATOM     10  N   UNL     1       8.642   9.858  18.130  1.00  0.00    -0.349 N 
ATOM     11  H   UNL     1       7.966   9.324  17.538  1.00  0.00     0.164 HD
BRANCH  10  12
ATOM     12  C   UNL     1       8.121  10.629  19.264  1.00  0.00     0.107 C 
BRANCH  12  13
ATOM     13  C   UNL     1       8.921  11.935  19.428  1.00  0.00     0.024 C 
ATOM     14  C   UNL     1       8.349  13.065  18.575  1.00  0.00     0.006 C 
ENDBRANCH  12  13
BRANCH  12  15
ATOM     15  C   UNL     1       8.203   9.783  20.540  1.00  0.00     0.180 C 
BRANCH  15  16
ATOM     16  O   UNL     1       9.481   9.896  21.103  1.00  0.00    -0.394 OA
ATOM     17  H   UNL     1       9.406  10.575  21.823  1.00  0.00     0.210 HD
ENDBRANCH  15  16
ENDBRANCH  12  15
ENDBRANCH  10  12
ENDBRANCH   1  10
BRANCH   3  18
ATOM     18  N   UNL     1      11.873  10.795  14.627  1.00  0.00    -0.364 N 
ATOM     19  H   UNL     1      12.606  10.269  14.097  1.00  0.00     0.162 HD
BRANCH  18  20
ATOM     20  C   UNL     1      11.179  11.901  13.965  1.00  0.00     0.150 C 
BRANCH  20  21
ATOM     21  C   UNL     1      12.166  12.913  13.449  1.00  0.00    -0.029 A 
ATOM     22  C   UNL     1      12.643  12.829  12.130  1.00  0.00     0.005 A 
ATOM     23  C   UNL     1      12.670  13.910  14.301  1.00  0.00     0.005 A 
ATOM     24  C   UNL     1      13.588  13.748  11.664  1.00  0.00     0.000 A 
ATOM     25  C   UNL     1      13.615  14.826  13.831  1.00  0.00     0.000 A 
ATOM     26  C   UNL     1      14.072  14.747  12.512  1.00  0.00     0.000 A 
ENDBRANCH  20  21
ENDBRANCH  18  20
ENDBRANCH   3  18
BRANCH   7  27
ATOM     27  C   UNL     1      13.493   8.893  20.229  1.00  0.00     0.084 C 
ATOM     28  C   UNL     1      14.236   7.556  20.301  1.00  0.00     0.031 C 
ATOM     29  C   UNL     1      14.184   9.957  21.087  1.00  0.00     0.031 C 
ENDBRANCH   7  27
TORSDOF 9
ENDMDL
MODEL 5
REMARK VINA RESULT:    -7.000      2.936      6.039
REMARK INTER + INTRA:         -11.862
REMARK INTER:                 -10.597
REMARK INTRA:                  -1.265
REMARK UNBOUND:                -1.383
REMARK SMILES CC[C@H](CO)Nc1nc(NCc2ccccc2)c2ncn(C(C)C)c2n1
REMARK SMILES IDX 7 1 8 2 9 3 18 4 19 5 20 6 21 7 25 8 26 9 6 10 3 12 2 13
REMARK SMILES IDX 1 14 4 15 5 16 10 18 11 20 12 21 13 22 17 23 14 24 16 25
REMARK SMILES IDX 15 26 22 27 23 28 24 29
REMARK H PARENT 6 11 5 17 10 19
REMARK Flexibility Score: inf
ROOT
ATOM      1  C   UNL     1       9.507  12.397  18.164  1.00  0.00     0.227 A 
ATOM      2  N   UNL     1      10.270  11.939  17.119  1.00  0.00    -0.193 NA
ATOM      3  C   UNL     1      10.210  12.499  15.873  1.00  0.00     0.160 A 
ATOM      4  C   UNL     1       9.328  13.572  15.702  1.00  0.00     0.150 A 
ATOM      5  N   UNL     1       9.059  14.308  14.606  1.00  0.00    -0.231 NA
ATOM      6  C   UNL     1       8.129  15.196  15.050  1.00  0.00     0.202 A 
ATOM      7  N   UNL     1       7.817  15.036  16.364  1.00  0.00    -0.313 N 
ATOM      8  C   UNL     1       8.585  14.008  16.749  1.00  0.00     0.167 A 
ATOM      9  N   UNL     1       8.653  13.447  17.979  1.00  0.00    -0.193 NA
ENDROOT
BRANCH   1  10
ATOM     10  N   UNL     1       9.600  11.786  19.459  1.00  0.00    -0.349 N 
ATOM     11  H   UNL     1       9.897  12.384  20.263  1.00  0.00     0.164 HD
BRANCH  10  12
ATOM     12  C   UNL     1       9.448  10.343  19.680  1.00  0.00     0.107 C 
BRANCH  12  13
ATOM     13  C   UNL     1      10.744   9.609  19.289  1.00  0.00     0.024 C 
ATOM     14  C   UNL     1      11.896   9.943  20.235  1.00  0.00     0.006 C 
ENDBRANCH  12  13
BRANCH  12  15
ATOM     15  C   UNL     1       8.264   9.820  18.859  1.00  0.00     0.180 C 
BRANCH  15  16
ATOM     16  O   UNL     1       8.731   9.189  17.699  1.00  0.00    -0.394 OA
ATOM     17  H   UNL     1       9.615   8.803  17.933  1.00  0.00     0.210 HD
ENDBRANCH  15  16
ENDBRANCH  12  15
ENDBRANCH  10  12
ENDBRANCH   1  10
BRANCH   3  18
ATOM     18  N   UNL     1      11.036  11.969  14.823  1.00  0.00    -0.364 N 
ATOM     19  H   UNL     1      10.550  11.480  14.037  1.00  0.00     0.162 HD
BRANCH  18  20
ATOM     20  C   UNL     1      12.496  12.073  14.796  1.00  0.00     0.150 C 
BRANCH  20  21
ATOM     21  C   UNL     1      13.118  11.029  15.684  1.00  0.00    -0.029 A 
ATOM     22  C   UNL     1      13.934  11.410  16.761  1.00  0.00     0.005 A 
ATOM     23  C   UNL     1      12.942   9.664  15.402  1.00  0.00     0.005 A 
ATOM     24  C   UNL     1      14.542  10.439  17.562  1.00  0.00     0.000 A 
ATOM     25  C   UNL     1      13.552   8.695  16.205  1.00  0.00     0.000 A 
ATOM     26  C   UNL     1      14.349   9.082  17.287  1.00  0.00     0.000 A 
ENDBRANCH  20  21
ENDBRANCH  18  20
ENDBRANCH   3  18
BRANCH   7  27
ATOM     27  C   UNL     1       6.864  15.805  17.171  1.00  0.00     0.084 C 
ATOM     28  C   UNL     1       7.543  17.044  17.760  1.00  0.00     0.031 C 
ATOM     29  C   UNL     1       5.643  16.189  16.331  1.00  0.00     0.031 C 
ENDBRANCH   7  27
TORSDOF 9
ENDMDL
MODEL 6
REMARK VINA RESULT:    -6.977      2.265      5.104
REMARK INTER + INTRA:         -11.827
REMARK INTER:                 -11.472
REMARK INTRA:                  -0.355
REMARK UNBOUND:                -1.383
REMARK SMILES CC[C@H](CO)Nc1nc(NCc2ccccc2)c2ncn(C(C)C)c2n1
REMARK SMILES IDX 7 1 8 2 9 3 18 4 19 5 20 6 21 7 25 8 26 9 6 10 3 12 2 13
REMARK SMILES IDX 1 14 4 15 5 16 10 18 11 20 12 21 13 22 17 23 14 24 16 25
REMARK SMILES IDX 15 26 22 27 23 28 24 29
REMARK H PARENT 6 11 5 17 10 19
REMARK Flexibility Score: inf
ROOT
ATOM      1  C   UNL     1      12.888   8.682  20.341  1.00  0.00     0.227 A 
ATOM      2  N   UNL     1      13.769   9.665  19.963  1.00  0.00    -0.193 NA
ATOM      3  C   UNL     1      13.351  10.842  19.406  1.00  0.00     0.160 A 
ATOM      4  C   UNL     1      11.973  11.008  19.233  1.00  0.00     0.150 A 
ATOM      5  N   UNL     1      11.281  12.043  18.719  1.00  0.00    -0.231 NA
ATOM      6  C   UNL     1       9.989  11.629  18.813  1.00  0.00     0.202 A 
ATOM      7  N   UNL     1       9.859  10.392  19.360  1.00  0.00    -0.313 N 
ATOM      8  C   UNL     1      11.122  10.024  19.614  1.00  0.00     0.167 A 
ATOM      9  N   UNL     1      11.545   8.862  20.165  1.00  0.00    -0.193 NA
ENDROOT
BRANCH   1  10
ATOM     10  N   UNL     1      13.364   7.461  20.924  1.00  0.00    -0.349 N 
ATOM     11  H   UNL     1      13.129   6.563  20.442  1.00  0.00     0.164 HD
BRANCH  10  12
ATOM     12  C   UNL     1      14.028   7.398  22.231  1.00  0.00     0.107 C 
BRANCH  12  13
ATOM     13  C   UNL     1      14.110   5.938  22.713  1.00  0.00     0.024 C 
ATOM     14  C   UNL     1      12.968   5.586  23.665  1.00  0.00     0.006 C 
ENDBRANCH  12  13
BRANCH  12  15
ATOM     15  C   UNL     1      13.255   8.256  23.241  1.00  0.00     0.180 C 
BRANCH  15  16
ATOM     16  O   UNL     1      13.799   9.546  23.281  1.00  0.00    -0.394 OA
ATOM     17  H   UNL     1      14.217   9.641  24.176  1.00  0.00     0.210 HD
ENDBRANCH  15  16
ENDBRANCH  12  15
ENDBRANCH  10  12
ENDBRANCH   1  10
BRANCH   3  18
ATOM     18  N   UNL     1      14.328  11.829  19.033  1.00  0.00    -0.364 N 
ATOM     19  H   UNL     1      14.658  12.478  19.783  1.00  0.00     0.162 HD
BRANCH  18  20
ATOM     20  C   UNL     1      14.875  11.972  17.683  1.00  0.00     0.150 C 
BRANCH  20  21
ATOM     21  C   UNL     1      14.113  11.114  16.709  1.00  0.00    -0.029 A 
ATOM     22  C   UNL     1      13.132  11.683  15.880  1.00  0.00     0.005 A 
ATOM     23  C   UNL     1      14.328   9.726  16.668  1.00  0.00     0.005 A 
ATOM     24  C   UNL     1      12.398  10.878  15.003  1.00  0.00     0.000 A 
ATOM     25  C   UNL     1      13.592   8.925  15.790  1.00  0.00     0.000 A 
ATOM     26  C   UNL     1      12.630   9.501  14.956  1.00  0.00     0.000 A 
ENDBRANCH  20  21
ENDBRANCH  18  20
ENDBRANCH   3  18
BRANCH   7  27
ATOM     27  C   UNL     1       8.629   9.634  19.610  1.00  0.00     0.084 C 
ATOM     28  C   UNL     1       8.268   9.681  21.098  1.00  0.00     0.031 C 
ATOM     29  C   UNL     1       7.486  10.173  18.746  1.00  0.00     0.031 C 
ENDBRANCH   7  27
TORSDOF 9
ENDMDL
MODEL 7
REMARK VINA RESULT:    -6.925      3.473      5.247
REMARK INTER + INTRA:         -11.749
REMARK INTER:                 -10.990
REMARK INTRA:                  -0.759
REMARK UNBOUND:                -1.383
REMARK SMILES CC[C@H](CO)Nc1nc(NCc2ccccc2)c2ncn(C(C)C)c2n1
REMARK SMILES IDX 7 1 8 2 9 3 18 4 19 5 20 6 21 7 25 8 26 9 6 10 3 12 2 13
REMARK SMILES IDX 1 14 4 15 5 16 10 18 11 20 12 21 13 22 17 23 14 24 16 25
REMARK SMILES IDX 15 26 22 27 23 28 24 29
REMARK H PARENT 6 11 5 17 10 19
REMARK Flexibility Score: inf
ROOT
ATOM      1  C   UNL     1      15.082  11.429  18.456  1.00  0.00     0.227 A 
ATOM      2  N   UNL     1      14.656  11.028  17.214  1.00  0.00    -0.193 NA
ATOM      3  C   UNL     1      14.018   9.835  17.013  1.00  0.00     0.160 A 
ATOM      4  C   UNL     1      13.814   9.028  18.137  1.00  0.00     0.150 A 
ATOM      5  N   UNL     1      13.226   7.820  18.243  1.00  0.00    -0.231 NA
ATOM      6  C   UNL     1      13.324   7.544  19.571  1.00  0.00     0.202 A 
ATOM      7  N   UNL     1      13.945   8.524  20.280  1.00  0.00    -0.313 N 
ATOM      8  C   UNL     1      14.243   9.444  19.354  1.00  0.00     0.167 A 
ATOM      9  N   UNL     1      14.873  10.628  19.543  1.00  0.00    -0.193 NA
ENDROOT
BRANCH   1  10
ATOM     10  N   UNL     1      15.746  12.689  18.629  1.00  0.00    -0.349 N 
ATOM     11  H   UNL     1      15.231  13.449  19.129  1.00  0.00     0.164 HD
BRANCH  10  12
ATOM     12  C   UNL     1      17.039  13.009  18.012  1.00  0.00     0.107 C 
BRANCH  12  13
ATOM     13  C   UNL     1      18.149  13.000  19.079  1.00  0.00     0.024 C 
ATOM     14  C   UNL     1      19.470  12.471  18.522  1.00  0.00     0.006 C 
ENDBRANCH  12  13
BRANCH  12  15
ATOM     15  C   UNL     1      16.957  14.381  17.332  1.00  0.00     0.180 C 
BRANCH  15  16
ATOM     16  O   UNL     1      18.052  14.552  16.476  1.00  0.00    -0.394 OA
ATOM     17  H   UNL     1      17.780  15.239  15.814  1.00  0.00     0.210 HD
ENDBRANCH  15  16
ENDBRANCH  12  15
ENDBRANCH  10  12
ENDBRANCH   1  10
BRANCH   3  18
ATOM     18  N   UNL     1      13.600   9.477  15.685  1.00  0.00    -0.364 N 
ATOM     19  H   UNL     1      14.351   9.340  14.971  1.00  0.00     0.162 HD
BRANCH  18  20
ATOM     20  C   UNL     1      12.203   9.299  15.286  1.00  0.00     0.150 C 
BRANCH  20  21
ATOM     21  C   UNL     1      11.417  10.559  15.531  1.00  0.00    -0.029 A 
ATOM     22  C   UNL     1      10.624  10.687  16.683  1.00  0.00     0.005 A 
ATOM     23  C   UNL     1      11.417  11.591  14.577  1.00  0.00     0.005 A 
ATOM     24  C   UNL     1       9.865  11.843  16.891  1.00  0.00     0.000 A 
ATOM     25  C   UNL     1      10.657  12.745  14.789  1.00  0.00     0.000 A 
ATOM     26  C   UNL     1       9.883  12.872  15.946  1.00  0.00     0.000 A 
ENDBRANCH  20  21
ENDBRANCH  18  20
ENDBRANCH   3  18
BRANCH   7  27
ATOM     27  C   UNL     1      14.226   8.564  21.719  1.00  0.00     0.084 C 
ATOM     28  C   UNL     1      13.226   9.480  22.431  1.00  0.00     0.031 C 
ATOM     29  C   UNL     1      14.198   7.151  22.308  1.00  0.00     0.031 C 
ENDBRANCH   7  27
TORSDOF 9
ENDMDL
MODEL 8
REMARK VINA RESULT:    -6.887      3.522      7.625
REMARK INTER + INTRA:         -11.692
REMARK INTER:                 -10.794
REMARK INTRA:                  -0.898
REMARK UNBOUND:                -1.383
REMARK SMILES CC[C@H](CO)Nc1nc(NCc2ccccc2)c2ncn(C(C)C)c2n1
REMARK SMILES IDX 7 1 8 2 9 3 18 4 19 5 20 6 21 7 25 8 26 9 6 10 3 12 2 13
REMARK SMILES IDX 1 14 4 15 5 16 10 18 11 20 12 21 13 22 17 23 14 24 16 25
REMARK SMILES IDX 15 26 22 27 23 28 24 29
REMARK H PARENT 6 11 5 17 10 19
REMARK Flexibility Score: inf
ROOT
ATOM      1  C   UNL     1      11.343  10.911  14.843  1.00  0.00     0.227 A 
ATOM      2  N   UNL     1      10.732  11.579  15.875  1.00  0.00    -0.193 NA
ATOM      3  C   UNL     1      10.211  12.834  15.723  1.00  0.00     0.160 A 
ATOM      4  C   UNL     1      10.326  13.419  14.458  1.00  0.00     0.150 A 
ATOM      5  N   UNL     1       9.914  14.625  14.018  1.00  0.00    -0.231 NA
ATOM      6  C   UNL     1      10.302  14.628  12.715  1.00  0.00     0.202 A 
ATOM      7  N   UNL     1      10.930  13.483  12.338  1.00  0.00    -0.313 N 
ATOM      8  C   UNL     1      10.932  12.741  13.453  1.00  0.00     0.167 A 
ATOM      9  N   UNL     1      11.445  11.498  13.613  1.00  0.00    -0.193 NA
ENDROOT
BRANCH   1  10
ATOM     10  N   UNL     1      11.876   9.594  15.040  1.00  0.00    -0.349 N 
ATOM     11  H   UNL     1      11.805   8.913  14.249  1.00  0.00     0.164 HD
BRANCH  10  12
ATOM     12  C   UNL     1      12.374   9.112  16.333  1.00  0.00     0.107 C 
BRANCH  12  13
ATOM     13  C   UNL     1      13.914   9.100  16.335  1.00  0.00     0.024 C 
ATOM     14  C   UNL     1      14.493  10.272  17.126  1.00  0.00     0.006 C 
ENDBRANCH  12  13
BRANCH  12  15
ATOM     15  C   UNL     1      11.824   7.707  16.604  1.00  0.00     0.180 C 
BRANCH  15  16
ATOM     16  O   UNL     1      10.567   7.798  17.216  1.00  0.00    -0.394 OA
ATOM     17  H   UNL     1      10.099   6.947  17.014  1.00  0.00     0.210 HD
ENDBRANCH  15  16
ENDBRANCH  12  15
ENDBRANCH  10  12
ENDBRANCH   1  10
BRANCH   3  18
ATOM     18  N   UNL     1       9.586  13.477  16.847  1.00  0.00    -0.364 N 
ATOM     19  H   UNL     1       8.678  13.964  16.671  1.00  0.00     0.162 HD
BRANCH  18  20
ATOM     20  C   UNL     1      10.143  13.486  18.201  1.00  0.00     0.150 C 
BRANCH  20  21
ATOM     21  C   UNL     1       9.728  12.251  18.953  1.00  0.00    -0.029 A 
ATOM     22  C   UNL     1      10.692  11.320  19.374  1.00  0.00     0.005 A 
ATOM     23  C   UNL     1       8.368  11.984  19.182  1.00  0.00     0.005 A 
ATOM     24  C   UNL     1      10.302  10.154  20.039  1.00  0.00     0.000 A 
ATOM     25  C   UNL     1       7.981  10.817  19.848  1.00  0.00     0.000 A 
ATOM     26  C   UNL     1       8.947   9.903  20.279  1.00  0.00     0.000 A 
ENDBRANCH  20  21
ENDBRANCH  18  20
ENDBRANCH   3  18
BRANCH   7  27
ATOM     27  C   UNL     1      11.480  13.140  11.022  1.00  0.00     0.084 C 
ATOM     28  C   UNL     1      10.841  14.008   9.935  1.00  0.00     0.031 C 
ATOM     29  C   UNL     1      13.004  13.290  11.026  1.00  0.00     0.031 C 
ENDBRANCH   7  27
TORSDOF 9
ENDMDL
MODEL 9
REMARK VINA RESULT:    -6.840      3.018      6.713
REMARK INTER + INTRA:         -11.622
REMARK INTER:                 -10.849
REMARK INTRA:                  -0.773
REMARK UNBOUND:                -1.383
REMARK SMILES CC[C@H](CO)Nc1nc(NCc2ccccc2)c2ncn(C(C)C)c2n1
REMARK SMILES IDX 7 1 8 2 9 3 18 4 19 5 20 6 21 7 25 8 26 9 6 10 3 12 2 13
REMARK SMILES IDX 1 14 4 15 5 16 10 18 11 20 12 21 13 22 17 23 14 24 16 25
REMARK SMILES IDX 15 26 22 27 23 28 24 29
REMARK H PARENT 6 11 5 17 10 19
REMARK Flexibility Score: inf
ROOT
ATOM      1  C   UNL     1      14.887  11.159  17.506  1.00  0.00     0.227 A 
ATOM      2  N   UNL     1      14.653   9.829  17.754  1.00  0.00    -0.193 NA
ATOM      3  C   UNL     1      13.628   9.146  17.161  1.00  0.00     0.160 A 
ATOM      4  C   UNL     1      12.814   9.866  16.280  1.00  0.00     0.150 A 
ATOM      5  N   UNL     1      11.746   9.466  15.562  1.00  0.00    -0.231 NA
ATOM      6  C   UNL     1      11.377  10.596  14.900  1.00  0.00     0.202 A 
ATOM      7  N   UNL     1      12.169  11.665  15.179  1.00  0.00    -0.313 N 
ATOM      8  C   UNL     1      13.063  11.179  16.049  1.00  0.00     0.167 A 
ATOM      9  N   UNL     1      14.082  11.845  16.641  1.00  0.00    -0.193 NA
ENDROOT
BRANCH   1  10
ATOM     10  N   UNL     1      15.975  11.841  18.146  1.00  0.00    -0.349 N 
ATOM     11  H   UNL     1      16.572  11.295  18.809  1.00  0.00     0.164 HD
BRANCH  10  12
ATOM     12  C   UNL     1      16.196  13.287  18.034  1.00  0.00     0.107 C 
BRANCH  12  13
ATOM     13  C   UNL     1      17.648  13.567  17.605  1.00  0.00     0.024 C 
ATOM     14  C   UNL     1      18.656  12.836  18.490  1.00  0.00     0.006 C 
ENDBRANCH  12  13
BRANCH  12  15
ATOM     15  C   UNL     1      15.893  13.957  19.379  1.00  0.00     0.180 C 
BRANCH  15  16
ATOM     16  O   UNL     1      15.304  13.031  20.250  1.00  0.00    -0.394 OA
ATOM     17  H   UNL     1      15.250  13.479  21.134  1.00  0.00     0.210 HD
ENDBRANCH  15  16
ENDBRANCH  12  15
ENDBRANCH  10  12
ENDBRANCH   1  10
BRANCH   3  18
ATOM     18  N   UNL     1      13.440   7.754  17.466  1.00  0.00    -0.364 N 
ATOM     19  H   UNL     1      13.910   7.063  16.839  1.00  0.00     0.162 HD
BRANCH  18  20
ATOM     20  C   UNL     1      12.639   7.261  18.588  1.00  0.00     0.150 C 
BRANCH  20  21
ATOM     21  C   UNL     1      13.066   7.918  19.873  1.00  0.00    -0.029 A 
ATOM     22  C   UNL     1      12.416   9.077  20.327  1.00  0.00     0.005 A 
ATOM     23  C   UNL     1      14.163   7.417  20.594  1.00  0.00     0.005 A 
ATOM     24  C   UNL     1      12.838   9.708  21.501  1.00  0.00     0.000 A 
ATOM     25  C   UNL     1      14.583   8.051  21.768  1.00  0.00     0.000 A 
ATOM     26  C   UNL     1      13.919   9.194  22.223  1.00  0.00     0.000 A 
ENDBRANCH  20  21
ENDBRANCH  18  20
ENDBRANCH   3  18
BRANCH   7  27
ATOM     27  C   UNL     1      12.068  13.031  14.654  1.00  0.00     0.084 C 
ATOM     28  C   UNL     1      12.757  13.130  13.291  1.00  0.00     0.031 C 
ATOM     29  C   UNL     1      10.601  13.460  14.565  1.00  0.00     0.031 C 
ENDBRANCH   7  27
TORSDOF 9
ENDMDL
MODEL 10
REMARK VINA RESULT:    -6.767      3.897      6.139
REMARK INTER + INTRA:         -11.512
REMARK INTER:                 -10.574
REMARK INTRA:                  -0.938
REMARK UNBOUND:                -1.383
REMARK SMILES CC[C@H](CO)Nc1nc(NCc2ccccc2)c2ncn(C(C)C)c2n1
REMARK SMILES IDX 7 1 8 2 9 3 18 4 19 5 20 6 21 7 25 8 26 9 6 10 3 12 2 13
REMARK SMILES IDX 1 14 4 15 5 16 10 18 11 20 12 21 13 22 17 23 14 24 16 25
REMARK SMILES IDX 15 26 22 27 23 28 24 29
REMARK H PARENT 6 11 5 17 10 19
REMARK Flexibility Score: inf
ROOT
ATOM      1  C   UNL     1      11.070  12.937  14.046  1.00  0.00     0.227 A 
ATOM      2  N   UNL     1      11.473  11.625  14.089  1.00  0.00    -0.193 NA
ATOM      3  C   UNL     1      11.351  10.862  15.217  1.00  0.00     0.160 A 
ATOM      4  C   UNL     1      10.794  11.479  16.342  1.00  0.00     0.150 A 
ATOM      5  N   UNL     1      10.555  10.985  17.573  1.00  0.00    -0.231 NA
ATOM      6  C   UNL     1      10.006  12.044  18.229  1.00  0.00     0.202 A 
ATOM      7  N   UNL     1       9.900  13.158  17.458  1.00  0.00    -0.313 N 
ATOM      8  C   UNL     1      10.402  12.775  16.277  1.00  0.00     0.167 A 
ATOM      9  N   UNL     1      10.526  13.522  15.155  1.00  0.00    -0.193 NA
ENDROOT
BRANCH   1  10
ATOM     10  N   UNL     1      11.212  13.705  12.843  1.00  0.00    -0.349 N 
ATOM     11  H   UNL     1      11.360  14.736  12.934  1.00  0.00     0.164 HD
BRANCH  10  12
ATOM     12  C   UNL     1      11.010  13.144  11.501  1.00  0.00     0.107 C 
BRANCH  12  13
ATOM     13  C   UNL     1      12.352  13.077  10.750  1.00  0.00     0.024 C 
ATOM     14  C   UNL     1      13.517  13.544  11.621  1.00  0.00     0.006 C 
ENDBRANCH  12  13
BRANCH  12  15
ATOM     15  C   UNL     1      10.004  14.008  10.731  1.00  0.00     0.180 C 
BRANCH  15  16
ATOM     16  O   UNL     1      10.112  13.752   9.358  1.00  0.00    -0.394 OA
ATOM     17  H   UNL     1      10.615  12.901   9.275  1.00  0.00     0.210 HD
ENDBRANCH  15  16
ENDBRANCH  12  15
ENDBRANCH  10  12
ENDBRANCH   1  10
BRANCH   3  18
ATOM     18  N   UNL     1      11.795   9.494  15.193  1.00  0.00    -0.364 N 
ATOM     19  H   UNL     1      11.068   8.763  15.018  1.00  0.00     0.162 HD
BRANCH  18  20
ATOM     20  C   UNL     1      13.183   9.078  15.397  1.00  0.00     0.150 C 
BRANCH  20  21
ATOM     21  C   UNL     1      13.602   9.315  16.823  1.00  0.00    -0.029 A 
ATOM     22  C   UNL     1      14.402  10.421  17.153  1.00  0.00     0.005 A 
ATOM     23  C   UNL     1      13.254   8.394  17.826  1.00  0.00     0.005 A 
ATOM     24  C   UNL     1      14.822  10.619  18.471  1.00  0.00     0.000 A 
ATOM     25  C   UNL     1      13.676   8.595  19.143  1.00  0.00     0.000 A 
ATOM     26  C   UNL     1      14.457   9.708  19.467  1.00  0.00     0.000 A 
ENDBRANCH  20  21
ENDBRANCH  18  20
ENDBRANCH   3  18
BRANCH   7  27
ATOM     27  C   UNL     1       9.364  14.471  17.830  1.00  0.00     0.084 C 
ATOM     28  C   UNL     1       8.148  14.311  18.746  1.00  0.00     0.031 C 
ATOM     29  C   UNL     1      10.450  15.321  18.495  1.00  0.00     0.031 C 
ENDBRANCH   7  27
TORSDOF 9
ENDMDL
MODEL 11
REMARK VINA RESULT:    -6.760      3.509      5.168
REMARK INTER + INTRA:         -11.502
REMARK INTER:                 -10.851
REMARK INTRA:                  -0.651
REMARK UNBOUND:                -1.383
REMARK SMILES CC[C@H](CO)Nc1nc(NCc2ccccc2)c2ncn(C(C)C)c2n1
REMARK SMILES IDX 7 1 8 2 9 3 18 4 19 5 20 6 21 7 25 8 26 9 6 10 3 12 2 13
REMARK SMILES IDX 1 14 4 15 5 16 10 18 11 20 12 21 13 22 17 23 14 24 16 25
REMARK SMILES IDX 15 26 22 27 23 28 24 29
REMARK H PARENT 6 11 5 17 10 19
REMARK Flexibility Score: inf
ROOT
ATOM      1  C   UNL     1      11.505   9.808  17.502  1.00  0.00     0.227 A 
ATOM      2  N   UNL     1      11.255  10.038  16.172  1.00  0.00    -0.193 NA
ATOM      3  C   UNL     1      11.775  11.114  15.508  1.00  0.00     0.160 A 
ATOM      4  C   UNL     1      12.584  11.984  16.247  1.00  0.00     0.150 A 
ATOM      5  N   UNL     1      13.222  13.109  15.868  1.00  0.00    -0.231 NA
ATOM      6  C   UNL     1      13.842  13.513  17.009  1.00  0.00     0.202 A 
ATOM      7  N   UNL     1      13.613  12.689  18.066  1.00  0.00    -0.313 N 
ATOM      8  C   UNL     1      12.818  11.737  17.560  1.00  0.00     0.167 A 
ATOM      9  N   UNL     1      12.299  10.668  18.208  1.00  0.00    -0.193 NA
ENDROOT
BRANCH   1  10
ATOM     10  N   UNL     1      10.943   8.666  18.164  1.00  0.00    -0.349 N 
ATOM     11  H   UNL     1      10.067   8.803  18.718  1.00  0.00     0.164 HD
BRANCH  10  12
ATOM     12  C   UNL     1      11.612   7.361  18.226  1.00  0.00     0.107 C 
BRANCH  12  13
ATOM     13  C   UNL     1      13.111   7.550  18.519  1.00  0.00     0.024 C 
ATOM     14  C   UNL     1      13.397   7.600  20.019  1.00  0.00     0.006 C 
ENDBRANCH  12  13
BRANCH  12  15
ATOM     15  C   UNL     1      11.411   6.619  16.900  1.00  0.00     0.180 C 
BRANCH  15  16
ATOM     16  O   UNL     1      10.968   5.314  17.148  1.00  0.00    -0.394 OA
ATOM     17  H   UNL     1      10.053   5.256  16.769  1.00  0.00     0.210 HD
ENDBRANCH  15  16
ENDBRANCH  12  15
ENDBRANCH  10  12
ENDBRANCH   1  10
BRANCH   3  18
ATOM     18  N   UNL     1      11.471  11.295  14.115  1.00  0.00    -0.364 N 
ATOM     19  H   UNL     1      11.776  10.539  13.460  1.00  0.00     0.162 HD
BRANCH  18  20
ATOM     20  C   UNL     1      10.772  12.461  13.572  1.00  0.00     0.150 C 
BRANCH  20  21
ATOM     21  C   UNL     1      11.486  12.989  12.357  1.00  0.00    -0.029 A 
ATOM     22  C   UNL     1      10.761  13.347  11.209  1.00  0.00     0.005 A 
ATOM     23  C   UNL     1      12.889  13.064  12.337  1.00  0.00     0.005 A 
ATOM     24  C   UNL     1      11.428  13.801  10.067  1.00  0.00     0.000 A 
ATOM     25  C   UNL     1      13.553  13.519  11.193  1.00  0.00     0.000 A 
ATOM     26  C   UNL     1      12.823  13.890  10.060  1.00  0.00     0.000 A 
ENDBRANCH  20  21
ENDBRANCH  18  20
ENDBRANCH   3  18
BRANCH   7  27
ATOM     27  C   UNL     1      14.113  12.813  19.439  1.00  0.00     0.084 C 
ATOM     28  C   UNL     1      15.404  12.008  19.610  1.00  0.00     0.031 C 
ATOM     29  C   UNL     1      14.328  14.286  19.797  1.00  0.00     0.031 C 
ENDBRANCH   7  27
TORSDOF 9
ENDMDL
MODEL 12
REMARK VINA RESULT:    -6.758      4.225      7.391
REMARK INTER + INTRA:         -11.499
REMARK INTER:                 -10.672
REMARK INTRA:                  -0.827
REMARK UNBOUND:                -1.383
REMARK SMILES CC[C@H](CO)Nc1nc(NCc2ccccc2)c2ncn(C(C)C)c2n1
REMARK SMILES IDX 7 1 8 2 9 3 18 4 19 5 20 6 21 7 25 8 26 9 6 10 3 12 2 13
REMARK SMILES IDX 1 14 4 15 5 16 10 18 11 20 12 21 13 22 17 23 14 24 16 25
REMARK SMILES IDX 15 26 22 27 23 28 24 29
REMARK H PARENT 6 11 5 17 10 19
REMARK Flexibility Score: inf
ROOT
ATOM      1  C   UNL     1      10.796  12.887  14.492  1.00  0.00     0.227 A 
ATOM      2  N   UNL     1       9.877  13.486  15.317  1.00  0.00    -0.193 NA
ATOM      3  C   UNL     1       9.434  12.893  16.466  1.00  0.00     0.160 A 
ATOM      4  C   UNL     1       9.959  11.633  16.773  1.00  0.00     0.150 A 
ATOM      5  N   UNL     1       9.712  10.821  17.820  1.00  0.00    -0.231 NA
ATOM      6  C   UNL     1      10.511   9.748  17.573  1.00  0.00     0.202 A 
ATOM      7  N   UNL     1      11.232   9.866  16.427  1.00  0.00    -0.313 N 
ATOM      8  C   UNL     1      10.866  11.060  15.944  1.00  0.00     0.167 A 
ATOM      9  N   UNL     1      11.300  11.656  14.808  1.00  0.00    -0.193 NA
ENDROOT
BRANCH   1  10
ATOM     10  N   UNL     1      11.240  13.542  13.296  1.00  0.00    -0.349 N 
ATOM     11  H   UNL     1      11.514  14.549  13.362  1.00  0.00     0.164 HD
BRANCH  10  12
ATOM     12  C   UNL     1      11.185  12.919  11.968  1.00  0.00     0.107 C 
BRANCH  12  13
ATOM     13  C   UNL     1      12.602  12.807  11.378  1.00  0.00     0.024 C 
ATOM     14  C   UNL     1      13.571  13.792  12.031  1.00  0.00     0.006 C 
ENDBRANCH  12  13
BRANCH  12  15
ATOM     15  C   UNL     1      10.282  13.749  11.049  1.00  0.00     0.180 C 
BRANCH  15  16
ATOM     16  O   UNL     1      10.626  13.519   9.711  1.00  0.00    -0.394 OA
ATOM     17  H   UNL     1      10.152  14.211   9.181  1.00  0.00     0.210 HD
ENDBRANCH  15  16
ENDBRANCH  12  15
ENDBRANCH  10  12
ENDBRANCH   1  10
BRANCH   3  18
ATOM     18  N   UNL     1       8.469  13.577  17.284  1.00  0.00    -0.364 N 
ATOM     19  H   UNL     1       7.686  13.005  17.675  1.00  0.00     0.162 HD
BRANCH  18  20
ATOM     20  C   UNL     1       8.523  15.007  17.593  1.00  0.00     0.150 C 
BRANCH  20  21
ATOM     21  C   UNL     1       7.225  15.677  17.229  1.00  0.00    -0.029 A 
ATOM     22  C   UNL     1       6.607  16.561  18.128  1.00  0.00     0.005 A 
ATOM     23  C   UNL     1       6.587  15.372  16.015  1.00  0.00     0.005 A 
ATOM     24  C   UNL     1       5.382  17.152  17.805  1.00  0.00     0.000 A 
ATOM     25  C   UNL     1       5.362  15.965  15.695  1.00  0.00     0.000 A 
ATOM     26  C   UNL     1       4.761  16.857  16.588  1.00  0.00     0.000 A 
ENDBRANCH  20  21
ENDBRANCH  18  20
ENDBRANCH   3  18
BRANCH   7  27
ATOM     27  C   UNL     1      12.185   8.911  15.852  1.00  0.00     0.084 C 
ATOM     28  C   UNL     1      13.623   9.370  16.114  1.00  0.00     0.031 C 
ATOM     29  C   UNL     1      11.941   7.509  16.416  1.00  0.00     0.031 C 
ENDBRANCH   7  27
TORSDOF 9
ENDMDL
MODEL 13
REMARK VINA RESULT:    -6.735      3.602      5.297
REMARK INTER + INTRA:         -11.464
REMARK INTER:                 -10.867
REMARK INTRA:                  -0.597
REMARK UNBOUND:                -1.383
REMARK SMILES CC[C@H](CO)Nc1nc(NCc2ccccc2)c2ncn(C(C)C)c2n1
REMARK SMILES IDX 7 1 8 2 9 3 18 4 19 5 20 6 21 7 25 8 26 9 6 10 3 12 2 13
REMARK SMILES IDX 1 14 4 15 5 16 10 18 11 20 12 21 13 22 17 23 14 24 16 25
REMARK SMILES IDX 15 26 22 27 23 28 24 29
REMARK H PARENT 6 11 5 17 10 19
REMARK Flexibility Score: inf
ROOT
ATOM      1  C   UNL     1      13.795   9.896  16.815  1.00  0.00     0.227 A 
ATOM      2  N   UNL     1      12.888  10.585  16.048  1.00  0.00    -0.193 NA
ATOM      3  C   UNL     1      12.878  11.951  15.983  1.00  0.00     0.160 A 
ATOM      4  C   UNL     1      13.841  12.628  16.738  1.00  0.00     0.150 A 
ATOM      5  N   UNL     1      14.069  13.950  16.868  1.00  0.00    -0.231 NA
ATOM      6  C   UNL     1      15.125  13.998  17.724  1.00  0.00     0.202 A 
ATOM      7  N   UNL     1      15.553  12.771  18.121  1.00  0.00    -0.313 N 
ATOM      8  C   UNL     1      14.728  11.928  17.487  1.00  0.00     0.167 A 
ATOM      9  N   UNL     1      14.730  10.575  17.544  1.00  0.00    -0.193 NA
ENDROOT
BRANCH   1  10
ATOM     10  N   UNL     1      13.776   8.462  16.856  1.00  0.00    -0.349 N 
ATOM     11  H   UNL     1      14.421   7.945  16.215  1.00  0.00     0.164 HD
BRANCH  10  12
ATOM     12  C   UNL     1      12.800   7.692  17.636  1.00  0.00     0.107 C 
BRANCH  12  13
ATOM     13  C   UNL     1      11.372   8.161  17.305  1.00  0.00     0.024 C 
ATOM     14  C   UNL     1      10.716   8.870  18.490  1.00  0.00     0.006 C 
ENDBRANCH  12  13
BRANCH  12  15
ATOM     15  C   UNL     1      13.091   7.861  19.132  1.00  0.00     0.180 C 
BRANCH  15  16
ATOM     16  O   UNL     1      14.299   7.230  19.455  1.00  0.00    -0.394 OA
ATOM     17  H   UNL     1      14.984   7.621  18.854  1.00  0.00     0.210 HD
ENDBRANCH  15  16
ENDBRANCH  12  15
ENDBRANCH  10  12
ENDBRANCH   1  10
BRANCH   3  18
ATOM     18  N   UNL     1      11.899  12.608  15.160  1.00  0.00    -0.364 N 
ATOM     19  H   UNL     1      11.617  13.575  15.439  1.00  0.00     0.162 HD
BRANCH  18  20
ATOM     20  C   UNL     1      11.285  12.006  13.975  1.00  0.00     0.150 C 
BRANCH  20  21
ATOM     21  C   UNL     1      11.789  12.671  12.722  1.00  0.00    -0.029 A 
ATOM     22  C   UNL     1      13.096  13.183  12.668  1.00  0.00     0.005 A 
ATOM     23  C   UNL     1      10.935  12.845  11.621  1.00  0.00     0.005 A 
ATOM     24  C   UNL     1      13.549  13.834  11.517  1.00  0.00     0.000 A 
ATOM     25  C   UNL     1      11.393  13.497  10.471  1.00  0.00     0.000 A 
ATOM     26  C   UNL     1      12.700  13.988  10.418  1.00  0.00     0.000 A 
ENDBRANCH  20  21
ENDBRANCH  18  20
ENDBRANCH   3  18
BRANCH   7  27
ATOM     27  C   UNL     1      16.655  12.444  19.032  1.00  0.00     0.084 C 
ATOM     28  C   UNL     1      18.000  12.779  18.382  1.00  0.00     0.031 C 
ATOM     29  C   UNL     1      16.483  13.182  20.362  1.00  0.00     0.031 C 
ENDBRANCH   7  27
TORSDOF 9
ENDMDL
MODEL 14
REMARK VINA RESULT:    -6.679      2.781      4.135
REMARK INTER + INTRA:         -11.381
REMARK INTER:                 -10.916
REMARK INTRA:                  -0.464
REMARK UNBOUND:                -1.383
REMARK SMILES CC[C@H](CO)Nc1nc(NCc2ccccc2)c2ncn(C(C)C)c2n1
REMARK SMILES IDX 7 1 8 2 9 3 18 4 19 5 20 6 21 7 25 8 26 9 6 10 3 12 2 13
REMARK SMILES IDX 1 14 4 15 5 16 10 18 11 20 12 21 13 22 17 23 14 24 16 25
REMARK SMILES IDX 15 26 22 27 23 28 24 29
REMARK H PARENT 6 11 5 17 10 19
REMARK Flexibility Score: inf
ROOT
ATOM      1  C   UNL     1      10.980  11.690  17.913  1.00  0.00     0.227 A 
ATOM      2  N   UNL     1      10.745  11.884  16.574  1.00  0.00    -0.193 NA
ATOM      3  C   UNL     1      11.361  11.134  15.611  1.00  0.00     0.160 A 
ATOM      4  C   UNL     1      12.252  10.148  16.048  1.00  0.00     0.150 A 
ATOM      5  N   UNL     1      12.992   9.272  15.340  1.00  0.00    -0.231 NA
ATOM      6  C   UNL     1      13.652   8.575  16.305  1.00  0.00     0.202 A 
ATOM      7  N   UNL     1      13.350   8.984  17.565  1.00  0.00    -0.313 N 
ATOM      8  C   UNL     1      12.468   9.974  17.375  1.00  0.00     0.167 A 
ATOM      9  N   UNL     1      11.853  10.721  18.321  1.00  0.00    -0.193 NA
ENDROOT
BRANCH   1  10
ATOM     10  N   UNL     1      10.313  12.495  18.895  1.00  0.00    -0.349 N 
ATOM     11  H   UNL     1      10.901  12.990  19.604  1.00  0.00     0.164 HD
BRANCH  10  12
ATOM     12  C   UNL     1       8.854  12.537  19.046  1.00  0.00     0.107 C 
BRANCH  12  13
ATOM     13  C   UNL     1       8.219  11.296  18.391  1.00  0.00     0.024 C 
ATOM     14  C   UNL     1       7.709  10.301  19.431  1.00  0.00     0.006 C 
ENDBRANCH  12  13
BRANCH  12  15
ATOM     15  C   UNL     1       8.309  13.821  18.409  1.00  0.00     0.180 C 
BRANCH  15  16
ATOM     16  O   UNL     1       8.338  13.708  17.013  1.00  0.00    -0.394 OA
ATOM     17  H   UNL     1       9.248  13.987  16.732  1.00  0.00     0.210 HD
ENDBRANCH  15  16
ENDBRANCH  12  15
ENDBRANCH  10  12
ENDBRANCH   1  10
BRANCH   3  18
ATOM     18  N   UNL     1      11.069  11.391  14.227  1.00  0.00    -0.364 N 
ATOM     19  H   UNL     1      11.114  10.577  13.573  1.00  0.00     0.162 HD
BRANCH  18  20
ATOM     20  C   UNL     1      10.720  12.709  13.693  1.00  0.00     0.150 C 
BRANCH  20  21
ATOM     21  C   UNL     1      11.570  13.036  12.494  1.00  0.00    -0.029 A 
ATOM     22  C   UNL     1      12.953  13.231  12.638  1.00  0.00     0.005 A 
ATOM     23  C   UNL     1      10.977  13.217  11.234  1.00  0.00     0.005 A 
ATOM     24  C   UNL     1      13.735  13.573  11.530  1.00  0.00     0.000 A 
ATOM     25  C   UNL     1      11.762  13.558  10.128  1.00  0.00     0.000 A 
ATOM     26  C   UNL     1      13.141  13.733  10.276  1.00  0.00     0.000 A 
ENDBRANCH  20  21
ENDBRANCH  18  20
ENDBRANCH   3  18
BRANCH   7  27
ATOM     27  C   UNL     1      13.868   8.466  18.836  1.00  0.00     0.084 C 
ATOM     28  C   UNL     1      14.317   9.620  19.737  1.00  0.00     0.031 C 
ATOM     29  C   UNL     1      12.812   7.601  19.529  1.00  0.00     0.031 C 
ENDBRANCH   7  27
TORSDOF 9
ENDMDL
MODEL 15
REMARK VINA RESULT:    -6.657      3.971      8.129
REMARK INTER + INTRA:         -11.348
REMARK INTER:                 -10.451
REMARK INTRA:                  -0.897
REMARK UNBOUND:                -1.383
REMARK SMILES CC[C@H](CO)Nc1nc(NCc2ccccc2)c2ncn(C(C)C)c2n1
REMARK SMILES IDX 7 1 8 2 9 3 18 4 19 5 20 6 21 7 25 8 26 9 6 10 3 12 2 13
REMARK SMILES IDX 1 14 4 15 5 16 10 18 11 20 12 21 13 22 17 23 14 24 16 25
REMARK SMILES IDX 15 26 22 27 23 28 24 29
REMARK H PARENT 6 11 5 17 10 19
REMARK Flexibility Score: inf
ROOT
ATOM      1  C   UNL     1      11.342  11.157  14.924  1.00  0.00     0.227 A 
ATOM      2  N   UNL     1      10.873  11.950  15.942  1.00  0.00    -0.193 NA
ATOM      3  C   UNL     1      10.477  13.242  15.735  1.00  0.00     0.160 A 
ATOM      4  C   UNL     1      10.570  13.732  14.428  1.00  0.00     0.150 A 
ATOM      5  N   UNL     1      10.258  14.946  13.932  1.00  0.00    -0.231 NA
ATOM      6  C   UNL     1      10.559  14.826  12.611  1.00  0.00     0.202 A 
ATOM      7  N   UNL     1      11.038  13.599  12.277  1.00  0.00    -0.313 N 
ATOM      8  C   UNL     1      11.035  12.931  13.438  1.00  0.00     0.167 A 
ATOM      9  N   UNL     1      11.425  11.652  13.653  1.00  0.00    -0.193 NA
ENDROOT
BRANCH   1  10
ATOM     10  N   UNL     1      11.746   9.804  15.179  1.00  0.00    -0.349 N 
ATOM     11  H   UNL     1      11.530   9.083  14.453  1.00  0.00     0.164 HD
BRANCH  10  12
ATOM     12  C   UNL     1      12.306   9.359  16.461  1.00  0.00     0.107 C 
BRANCH  12  13
ATOM     13  C   UNL     1      13.844   9.392  16.405  1.00  0.00     0.024 C 
ATOM     14  C   UNL     1      14.416  10.594  17.155  1.00  0.00     0.006 C 
ENDBRANCH  12  13
BRANCH  12  15
ATOM     15  C   UNL     1      11.808   7.943  16.774  1.00  0.00     0.180 C 
BRANCH  15  16
ATOM     16  O   UNL     1      10.505   8.000  17.286  1.00  0.00    -0.394 OA
ATOM     17  H   UNL     1      10.525   7.507  18.146  1.00  0.00     0.210 HD
ENDBRANCH  15  16
ENDBRANCH  12  15
ENDBRANCH  10  12
ENDBRANCH   1  10
BRANCH   3  18
ATOM     18  N   UNL     1       9.996  14.017  16.847  1.00  0.00    -0.364 N 
ATOM     19  H   UNL     1      10.592  14.816  17.162  1.00  0.00     0.162 HD
BRANCH  18  20
ATOM     20  C   UNL     1       8.741  13.750  17.551  1.00  0.00     0.150 C 
BRANCH  20  21
ATOM     21  C   UNL     1       7.675  14.721  17.120  1.00  0.00    -0.029 A 
ATOM     22  C   UNL     1       7.167  14.681  15.811  1.00  0.00     0.005 A 
ATOM     23  C   UNL     1       7.228  15.719  18.001  1.00  0.00     0.005 A 
ATOM     24  C   UNL     1       6.205  15.608  15.400  1.00  0.00     0.000 A 
ATOM     25  C   UNL     1       6.265  16.645  17.587  1.00  0.00     0.000 A 
ATOM     26  C   UNL     1       5.752  16.588  16.288  1.00  0.00     0.000 A 
ENDBRANCH  20  21
ENDBRANCH  18  20
ENDBRANCH   3  18
BRANCH   7  27
ATOM     27  C   UNL     1      11.463  13.118  10.959  1.00  0.00     0.084 C 
ATOM     28  C   UNL     1      10.810  13.951   9.852  1.00  0.00     0.031 C 
ATOM     29  C   UNL     1      12.989  13.148  10.846  1.00  0.00     0.031 C 
ENDBRANCH   7  27
TORSDOF 9
ENDMDL
