MODEL 1
REMARK VINA RESULT:    -7.794      0.000      0.000
REMARK INTER + INTRA:         -10.823
REMARK INTER:                  -9.844
REMARK INTRA:                  -0.979
REMARK UNBOUND:                -0.979
REMARK SMILES C[N+]1(C)CCN(CC(O)(c2ccccc2)C2CCCCC2)CC1
REMARK SMILES IDX 7 1 6 2 1 3 2 4 3 5 4 6 23 7 5 8 22 9 8 10 9 11 16 13 17 14
REMARK SMILES IDX 21 15 18 16 20 17 19 18 10 19 11 20 15 21 12 22 14 23 13 24
REMARK H PARENT 9 12
REMARK Flexibility Score: inf
ROOT
ATOM      1  C   UNL     1      10.871  13.029  15.476  1.00  0.00     0.125 C 
ENDROOT
BRANCH   1   2
ATOM      2  N   UNL     1      10.910  14.226  16.354  1.00  0.00    -0.289 NA
ATOM      3  C   UNL     1       9.132  17.284  18.294  1.00  0.00     0.334 C 
ATOM      4  N   UNL     1       9.019  15.824  18.056  1.00  0.00    -0.326 N 
ATOM      5  C   UNL     1       7.838  15.330  18.808  1.00  0.00     0.334 C 
ATOM      6  C   UNL     1      10.256  15.149  18.568  1.00  0.00     0.279 C 
ATOM      7  C   UNL     1       8.801  15.570  16.595  1.00  0.00     0.279 C 
ATOM      8  C   UNL     1      10.599  13.889  17.763  1.00  0.00     0.146 C 
ATOM      9  C   UNL     1      10.124  15.375  15.833  1.00  0.00     0.146 C 
ENDBRANCH   1   2
BRANCH   1  10
ATOM     10  C   UNL     1      12.285  12.700  14.892  1.00  0.00     0.105 C 
BRANCH  10  11
ATOM     11  O   UNL     1      13.154  13.722  15.343  1.00  0.00    -0.384 OA
ATOM     12  H   UNL     1      13.123  13.758  16.335  1.00  0.00     0.211 HD
ENDBRANCH  10  11
BRANCH  10  13
ATOM     13  C   UNL     1      12.286  12.667  13.314  1.00  0.00     0.027 C 
ATOM     14  C   UNL     1      10.907  13.044  12.716  1.00  0.00     0.007 C 
ATOM     15  C   UNL     1      13.376  13.554  12.659  1.00  0.00     0.007 C 
ATOM     16  C   UNL     1      10.904  12.880  11.190  1.00  0.00     0.000 C 
ATOM     17  C   UNL     1      13.380  13.379  11.135  1.00  0.00     0.000 C 
ATOM     18  C   UNL     1      12.009  13.720  10.541  1.00  0.00     0.000 C 
ENDBRANCH  10  13
BRANCH  10  19
ATOM     19  C   UNL     1      12.808  11.366  15.461  1.00  0.00    -0.015 A 
ATOM     20  C   UNL     1      12.414  10.118  14.924  1.00  0.00     0.007 A 
ATOM     21  C   UNL     1      13.752  11.364  16.513  1.00  0.00     0.007 A 
ATOM     22  C   UNL     1      12.923   8.922  15.441  1.00  0.00     0.000 A 
ATOM     23  C   UNL     1      14.256  10.164  17.024  1.00  0.00     0.000 A 
ATOM     24  C   UNL     1      13.838   8.945  16.491  1.00  0.00     0.000 A 
ENDBRANCH  10  19
ENDBRANCH   1  10
TORSDOF 5
ENDMDL
MODEL 2
REMARK VINA RESULT:    -7.780     10.600     14.252
REMARK INTER + INTRA:         -10.806
REMARK INTER:                  -9.947
REMARK INTRA:                  -0.859
REMARK UNBOUND:                -0.979
REMARK SMILES C[N+]1(C)CCN(CC(O)(c2ccccc2)C2CCCCC2)CC1
REMARK SMILES IDX 7 1 6 2 1 3 2 4 3 5 4 6 23 7 5 8 22 9 8 10 9 11 16 13 17 14
REMARK SMILES IDX 21 15 18 16 20 17 19 18 10 19 11 20 15 21 12 22 14 23 13 24
REMARK H PARENT 9 12
REMARK Flexibility Score: inf
ROOT
ATOM      1  C   UNL     1      18.343  13.549   3.352  1.00  0.00     0.125 C 
ENDROOT
BRANCH   1   2
ATOM      2  N   UNL     1      19.406  13.089   4.281  1.00  0.00    -0.289 NA
ATOM      3  C   UNL     1      23.259  12.306   5.183  1.00  0.00     0.334 C 
ATOM      4  N   UNL     1      22.383  13.346   4.590  1.00  0.00    -0.326 N 
ATOM      5  C   UNL     1      23.238  14.497   4.207  1.00  0.00     0.334 C 
ATOM      6  C   UNL     1      21.384  13.785   5.617  1.00  0.00     0.279 C 
ATOM      7  C   UNL     1      21.725  12.803   3.358  1.00  0.00     0.279 C 
ATOM      8  C   UNL     1      20.058  14.221   4.980  1.00  0.00     0.146 C 
ATOM      9  C   UNL     1      20.371  12.140   3.664  1.00  0.00     0.146 C 
ENDBRANCH   1   2
BRANCH   1  10
ATOM     10  C   UNL     1      16.937  13.011   3.778  1.00  0.00     0.105 C 
BRANCH  10  11
ATOM     11  O   UNL     1      17.152  11.736   4.354  1.00  0.00    -0.384 OA
ATOM     12  H   UNL     1      16.310  11.429   4.782  1.00  0.00     0.211 HD
ENDBRANCH  10  11
BRANCH  10  13
ATOM     13  C   UNL     1      15.952  12.876   2.552  1.00  0.00     0.027 C 
ATOM     14  C   UNL     1      16.595  13.353   1.225  1.00  0.00     0.007 C 
ATOM     15  C   UNL     1      15.382  11.448   2.348  1.00  0.00     0.007 C 
ATOM     16  C   UNL     1      15.576  13.329   0.078  1.00  0.00     0.000 C 
ATOM     17  C   UNL     1      14.354  11.429   1.210  1.00  0.00     0.000 C 
ATOM     18  C   UNL     1      14.975  11.930  -0.098  1.00  0.00     0.000 C 
ENDBRANCH  10  13
BRANCH  10  19
ATOM     19  C   UNL     1      16.321  13.912   4.868  1.00  0.00    -0.015 A 
ATOM     20  C   UNL     1      16.584  15.300   4.928  1.00  0.00     0.007 A 
ATOM     21  C   UNL     1      15.422  13.369   5.814  1.00  0.00     0.007 A 
ATOM     22  C   UNL     1      15.993  16.100   5.910  1.00  0.00     0.000 A 
ATOM     23  C   UNL     1      14.836  14.176   6.793  1.00  0.00     0.000 A 
ATOM     24  C   UNL     1      15.124  15.539   6.843  1.00  0.00     0.000 A 
ENDBRANCH  10  19
ENDBRANCH   1  10
TORSDOF 5
ENDMDL
MODEL 3
REMARK VINA RESULT:    -7.755      2.372      3.140
REMARK INTER + INTRA:         -10.773
REMARK INTER:                 -10.253
REMARK INTRA:                  -0.520
REMARK UNBOUND:                -0.979
REMARK SMILES C[N+]1(C)CCN(CC(O)(c2ccccc2)C2CCCCC2)CC1
REMARK SMILES IDX 7 1 6 2 1 3 2 4 3 5 4 6 23 7 5 8 22 9 8 10 9 11 16 13 17 14
REMARK SMILES IDX 21 15 18 16 20 17 19 18 10 19 11 20 15 21 12 22 14 23 13 24
REMARK H PARENT 9 12
REMARK Flexibility Score: inf
ROOT
ATOM      1  C   UNL     1      11.002  12.626  16.281  1.00  0.00     0.125 C 
ENDROOT
BRANCH   1   2
ATOM      2  N   UNL     1      10.864  11.643  17.385  1.00  0.00    -0.289 NA
ATOM      3  C   UNL     1       8.982  10.172  20.637  1.00  0.00     0.334 C 
ATOM      4  N   UNL     1       8.732  10.650  19.254  1.00  0.00    -0.326 N 
ATOM      5  C   UNL     1       7.276  10.532  18.988  1.00  0.00     0.334 C 
ATOM      6  C   UNL     1       9.488   9.782  18.295  1.00  0.00     0.279 C 
ATOM      7  C   UNL     1       9.126  12.091  19.143  1.00  0.00     0.279 C 
ATOM      8  C   UNL     1       9.921  10.553  17.040  1.00  0.00     0.146 C 
ATOM      9  C   UNL     1      10.592  12.263  18.708  1.00  0.00     0.146 C 
ENDBRANCH   1   2
BRANCH   1  10
ATOM     10  C   UNL     1      12.425  12.568  15.635  1.00  0.00     0.105 C 
BRANCH  10  11
ATOM     11  O   UNL     1      13.170  13.628  16.206  1.00  0.00    -0.384 OA
ATOM     12  H   UNL     1      12.944  13.698  17.170  1.00  0.00     0.211 HD
ENDBRANCH  10  11
BRANCH  10  13
ATOM     13  C   UNL     1      12.377  12.743  14.067  1.00  0.00     0.027 C 
ATOM     14  C   UNL     1      10.926  12.821  13.527  1.00  0.00     0.007 C 
ATOM     15  C   UNL     1      13.176  13.962  13.538  1.00  0.00     0.007 C 
ATOM     16  C   UNL     1      10.911  12.863  11.993  1.00  0.00     0.000 C 
ATOM     17  C   UNL     1      13.169  13.995  12.005  1.00  0.00     0.000 C 
ATOM     18  C   UNL     1      11.736  14.041  11.464  1.00  0.00     0.000 C 
ENDBRANCH  10  13
BRANCH  10  19
ATOM     19  C   UNL     1      13.135  11.251  16.010  1.00  0.00    -0.015 A 
ATOM     20  C   UNL     1      14.045  11.173  17.090  1.00  0.00     0.007 A 
ATOM     21  C   UNL     1      12.844  10.062  15.305  1.00  0.00     0.007 A 
ATOM     22  C   UNL     1      14.657   9.962  17.427  1.00  0.00     0.000 A 
ATOM     23  C   UNL     1      13.460   8.854  15.647  1.00  0.00     0.000 A 
ATOM     24  C   UNL     1      14.368   8.806  16.705  1.00  0.00     0.000 A 
ENDBRANCH  10  19
ENDBRANCH   1  10
TORSDOF 5
ENDMDL
MODEL 4
REMARK VINA RESULT:    -7.642      2.468      5.523
REMARK INTER + INTRA:         -10.631
REMARK INTER:                  -9.788
REMARK INTRA:                  -0.843
REMARK UNBOUND:                -0.979
REMARK SMILES C[N+]1(C)CCN(CC(O)(c2ccccc2)C2CCCCC2)CC1
REMARK SMILES IDX 7 1 6 2 1 3 2 4 3 5 4 6 23 7 5 8 22 9 8 10 9 11 16 13 17 14
REMARK SMILES IDX 21 15 18 16 20 17 19 18 10 19 11 20 15 21 12 22 14 23 13 24
REMARK H PARENT 9 12
REMARK Flexibility Score: inf
ROOT
ATOM      1  C   UNL     1      12.381  12.966  14.332  1.00  0.00     0.125 C 
ENDROOT
BRANCH   1   2
ATOM      2  N   UNL     1      12.070  12.816  12.887  1.00  0.00    -0.289 NA
ATOM      3  C   UNL     1      10.852  14.280   9.331  1.00  0.00     0.334 C 
ATOM      4  N   UNL     1      11.769  14.564  10.462  1.00  0.00    -0.326 N 
ATOM      5  C   UNL     1      12.488  15.827  10.160  1.00  0.00     0.334 C 
ATOM      6  C   UNL     1      12.757  13.443  10.581  1.00  0.00     0.279 C 
ATOM      7  C   UNL     1      10.973  14.751  11.717  1.00  0.00     0.279 C 
ATOM      8  C   UNL     1      13.209  13.225  12.031  1.00  0.00     0.146 C 
ATOM      9  C   UNL     1      10.778  13.432  12.486  1.00  0.00     0.146 C 
ENDBRANCH   1   2
BRANCH   1  10
ATOM     10  C   UNL     1      12.061  11.657  15.126  1.00  0.00     0.105 C 
BRANCH  10  11
ATOM     11  O   UNL     1      12.082  10.601  14.184  1.00  0.00    -0.384 OA
ATOM     12  H   UNL     1      12.208   9.741  14.666  1.00  0.00     0.211 HD
ENDBRANCH  10  11
BRANCH  10  13
ATOM     13  C   UNL     1      10.646  11.712  15.823  1.00  0.00     0.027 C 
ATOM     14  C   UNL     1      10.542  10.737  17.024  1.00  0.00     0.007 C 
ATOM     15  C   UNL     1      10.222  13.129  16.290  1.00  0.00     0.007 C 
ATOM     16  C   UNL     1       9.120  10.722  17.600  1.00  0.00     0.000 C 
ATOM     17  C   UNL     1       8.796  13.113  16.855  1.00  0.00     0.000 C 
ATOM     18  C   UNL     1       8.679  12.127  18.022  1.00  0.00     0.000 C 
ENDBRANCH  10  13
BRANCH  10  19
ATOM     19  C   UNL     1      13.164  11.372  16.164  1.00  0.00    -0.015 A 
ATOM     20  C   UNL     1      13.660  10.066  16.390  1.00  0.00     0.007 A 
ATOM     21  C   UNL     1      13.753  12.436  16.885  1.00  0.00     0.007 A 
ATOM     22  C   UNL     1      14.679   9.837  17.319  1.00  0.00     0.000 A 
ATOM     23  C   UNL     1      14.772  12.198  17.813  1.00  0.00     0.000 A 
ATOM     24  C   UNL     1      15.231  10.900  18.032  1.00  0.00     0.000 A 
ENDBRANCH  10  19
ENDBRANCH   1  10
TORSDOF 5
ENDMDL
MODEL 5
REMARK VINA RESULT:    -7.549      1.611      4.682
REMARK INTER + INTRA:         -10.513
REMARK INTER:                  -9.750
REMARK INTRA:                  -0.763
REMARK UNBOUND:                -0.979
REMARK SMILES C[N+]1(C)CCN(CC(O)(c2ccccc2)C2CCCCC2)CC1
REMARK SMILES IDX 7 1 6 2 1 3 2 4 3 5 4 6 23 7 5 8 22 9 8 10 9 11 16 13 17 14
REMARK SMILES IDX 21 15 18 16 20 17 19 18 10 19 11 20 15 21 12 22 14 23 13 24
REMARK H PARENT 9 12
REMARK Flexibility Score: inf
ROOT
ATOM      1  C   UNL     1      11.215  13.046  15.759  1.00  0.00     0.125 C 
ENDROOT
BRANCH   1   2
ATOM      2  N   UNL     1       9.856  13.430  15.299  1.00  0.00    -0.289 NA
ATOM      3  C   UNL     1       6.369  15.410  15.737  1.00  0.00     0.334 C 
ATOM      4  N   UNL     1       7.839  15.596  15.814  1.00  0.00    -0.326 N 
ATOM      5  C   UNL     1       8.101  17.012  16.170  1.00  0.00     0.334 C 
ATOM      6  C   UNL     1       8.438  15.298  14.472  1.00  0.00     0.279 C 
ATOM      7  C   UNL     1       8.399  14.717  16.890  1.00  0.00     0.279 C 
ATOM      8  C   UNL     1       9.859  14.731  14.590  1.00  0.00     0.146 C 
ATOM      9  C   UNL     1       8.816  13.335  16.357  1.00  0.00     0.146 C 
ENDBRANCH   1   2
BRANCH   1  10
ATOM     10  C   UNL     1      11.937  12.130  14.716  1.00  0.00     0.105 C 
BRANCH  10  11
ATOM     11  O   UNL     1      10.936  11.313  14.139  1.00  0.00    -0.384 OA
ATOM     12  H   UNL     1      11.342  10.448  13.867  1.00  0.00     0.211 HD
ENDBRANCH  10  11
BRANCH  10  13
ATOM     13  C   UNL     1      13.039  11.220  15.384  1.00  0.00     0.027 C 
ATOM     14  C   UNL     1      13.440  11.718  16.796  1.00  0.00     0.007 C 
ATOM     15  C   UNL     1      12.658   9.719  15.472  1.00  0.00     0.007 C 
ATOM     16  C   UNL     1      14.600  10.890  17.365  1.00  0.00     0.000 C 
ATOM     17  C   UNL     1      13.824   8.892  16.029  1.00  0.00     0.000 C 
ATOM     18  C   UNL     1      14.245   9.400  17.412  1.00  0.00     0.000 C 
ENDBRANCH  10  13
BRANCH  10  19
ATOM     19  C   UNL     1      12.550  12.978  13.584  1.00  0.00    -0.015 A 
ATOM     20  C   UNL     1      13.263  14.172  13.846  1.00  0.00     0.007 A 
ATOM     21  C   UNL     1      12.458  12.544  12.242  1.00  0.00     0.007 A 
ATOM     22  C   UNL     1      13.831  14.910  12.803  1.00  0.00     0.000 A 
ATOM     23  C   UNL     1      13.029  13.288  11.206  1.00  0.00     0.000 A 
ATOM     24  C   UNL     1      13.712  14.471  11.486  1.00  0.00     0.000 A 
ENDBRANCH  10  19
ENDBRANCH   1  10
TORSDOF 5
ENDMDL
MODEL 6
REMARK VINA RESULT:    -7.481     10.884     14.442
REMARK INTER + INTRA:         -10.428
REMARK INTER:                  -9.869
REMARK INTRA:                  -0.560
REMARK UNBOUND:                -0.979
REMARK SMILES C[N+]1(C)CCN(CC(O)(c2ccccc2)C2CCCCC2)CC1
REMARK SMILES IDX 7 1 6 2 1 3 2 4 3 5 4 6 23 7 5 8 22 9 8 10 9 11 16 13 17 14
REMARK SMILES IDX 21 15 18 16 20 17 19 18 10 19 11 20 15 21 12 22 14 23 13 24
REMARK H PARENT 9 12
REMARK Flexibility Score: inf
ROOT
ATOM      1  C   UNL     1      18.276  12.956   4.085  1.00  0.00     0.125 C 
ENDROOT
BRANCH   1   2
ATOM      2  N   UNL     1      19.633  13.487   3.800  1.00  0.00    -0.289 NA
ATOM      3  C   UNL     1      23.427  14.340   4.873  1.00  0.00     0.334 C 
ATOM      4  N   UNL     1      22.414  13.256   4.912  1.00  0.00    -0.326 N 
ATOM      5  C   UNL     1      23.031  12.078   5.572  1.00  0.00     0.334 C 
ATOM      6  C   UNL     1      22.031  12.898   3.508  1.00  0.00     0.279 C 
ATOM      7  C   UNL     1      21.236  13.700   5.723  1.00  0.00     0.279 C 
ATOM      8  C   UNL     1      20.578  12.413   3.414  1.00  0.00     0.146 C 
ATOM      9  C   UNL     1      20.159  14.385   4.862  1.00  0.00     0.146 C 
ENDBRANCH   1   2
BRANCH   1  10
ATOM     10  C   UNL     1      17.164  13.842   3.433  1.00  0.00     0.105 C 
BRANCH  10  11
ATOM     11  O   UNL     1      17.833  14.836   2.680  1.00  0.00    -0.384 OA
ATOM     12  H   UNL     1      18.348  14.398   1.953  1.00  0.00     0.211 HD
ENDBRANCH  10  11
BRANCH  10  13
ATOM     13  C   UNL     1      16.242  14.532   4.513  1.00  0.00     0.027 C 
ATOM     14  C   UNL     1      15.075  15.326   3.871  1.00  0.00     0.007 C 
ATOM     15  C   UNL     1      15.662  13.557   5.571  1.00  0.00     0.007 C 
ATOM     16  C   UNL     1      14.274  16.086   4.936  1.00  0.00     0.000 C 
ATOM     17  C   UNL     1      14.872  14.321   6.641  1.00  0.00     0.000 C 
ATOM     18  C   UNL     1      13.736  15.133   6.009  1.00  0.00     0.000 C 
ENDBRANCH  10  13
BRANCH  10  19
ATOM     19  C   UNL     1      16.316  13.010   2.451  1.00  0.00    -0.015 A 
ATOM     20  C   UNL     1      15.561  11.892   2.875  1.00  0.00     0.007 A 
ATOM     21  C   UNL     1      16.228  13.389   1.092  1.00  0.00     0.007 A 
ATOM     22  C   UNL     1      14.780  11.169   1.969  1.00  0.00     0.000 A 
ATOM     23  C   UNL     1      15.444  12.661   0.192  1.00  0.00     0.000 A 
ATOM     24  C   UNL     1      14.724  11.550   0.630  1.00  0.00     0.000 A 
ENDBRANCH  10  19
ENDBRANCH   1  10
TORSDOF 5
ENDMDL
MODEL 7
REMARK VINA RESULT:    -7.289      0.854      4.359
REMARK INTER + INTRA:         -10.185
REMARK INTER:                  -9.231
REMARK INTRA:                  -0.954
REMARK UNBOUND:                -0.979
REMARK SMILES C[N+]1(C)CCN(CC(O)(c2ccccc2)C2CCCCC2)CC1
REMARK SMILES IDX 7 1 6 2 1 3 2 4 3 5 4 6 23 7 5 8 22 9 8 10 9 11 16 13 17 14
REMARK SMILES IDX 21 15 18 16 20 17 19 18 10 19 11 20 15 21 12 22 14 23 13 24
REMARK H PARENT 9 12
REMARK Flexibility Score: inf
ROOT
ATOM      1  C   UNL     1      11.757  13.814  15.784  1.00  0.00     0.125 C 
ENDROOT
BRANCH   1   2
ATOM      2  N   UNL     1      10.423  14.076  16.382  1.00  0.00    -0.289 NA
ATOM      3  C   UNL     1       8.024  15.787  19.138  1.00  0.00     0.334 C 
ATOM      4  N   UNL     1       9.134  16.090  18.201  1.00  0.00    -0.326 N 
ATOM      5  C   UNL     1       9.457  17.533  18.329  1.00  0.00     0.334 C 
ATOM      6  C   UNL     1       8.682  15.802  16.802  1.00  0.00     0.279 C 
ATOM      7  C   UNL     1      10.343  15.290  18.581  1.00  0.00     0.279 C 
ATOM      8  C   UNL     1       9.842  15.353  15.903  1.00  0.00     0.146 C 
ATOM      9  C   UNL     1      10.391  13.930  17.862  1.00  0.00     0.146 C 
ENDBRANCH   1   2
BRANCH   1  10
ATOM     10  C   UNL     1      11.754  12.505  14.928  1.00  0.00     0.105 C 
BRANCH  10  11
ATOM     11  O   UNL     1      10.479  11.915  15.100  1.00  0.00    -0.384 OA
ATOM     12  H   UNL     1       9.994  11.937  14.234  1.00  0.00     0.211 HD
ENDBRANCH  10  11
BRANCH  10  13
ATOM     13  C   UNL     1      12.871  11.489  15.388  1.00  0.00     0.027 C 
ATOM     14  C   UNL     1      13.402  11.801  16.811  1.00  0.00     0.007 C 
ATOM     15  C   UNL     1      12.441  10.000  15.328  1.00  0.00     0.007 C 
ATOM     16  C   UNL     1      14.571  10.877  17.178  1.00  0.00     0.000 C 
ATOM     17  C   UNL     1      13.615   9.079  15.683  1.00  0.00     0.000 C 
ATOM     18  C   UNL     1      14.164   9.403  17.077  1.00  0.00     0.000 C 
ENDBRANCH  10  13
BRANCH  10  19
ATOM     19  C   UNL     1      11.910  12.838  13.431  1.00  0.00    -0.015 A 
ATOM     20  C   UNL     1      10.826  12.749  12.527  1.00  0.00     0.007 A 
ATOM     21  C   UNL     1      13.149  13.301  12.932  1.00  0.00     0.007 A 
ATOM     22  C   UNL     1      10.987  13.081  11.179  1.00  0.00     0.000 A 
ATOM     23  C   UNL     1      13.302  13.631  11.582  1.00  0.00     0.000 A 
ATOM     24  C   UNL     1      12.223  13.517  10.706  1.00  0.00     0.000 A 
ENDBRANCH  10  19
ENDBRANCH   1  10
TORSDOF 5
ENDMDL
MODEL 8
REMARK VINA RESULT:    -7.164      1.948      5.939
REMARK INTER + INTRA:         -10.028
REMARK INTER:                  -9.068
REMARK INTRA:                  -0.960
REMARK UNBOUND:                -0.979
REMARK SMILES C[N+]1(C)CCN(CC(O)(c2ccccc2)C2CCCCC2)CC1
REMARK SMILES IDX 7 1 6 2 1 3 2 4 3 5 4 6 23 7 5 8 22 9 8 10 9 11 16 13 17 14
REMARK SMILES IDX 21 15 18 16 20 17 19 18 10 19 11 20 15 21 12 22 14 23 13 24
REMARK H PARENT 9 12
REMARK Flexibility Score: inf
ROOT
ATOM      1  C   UNL     1      11.218  12.486  14.032  1.00  0.00     0.125 C 
ENDROOT
BRANCH   1   2
ATOM      2  N   UNL     1      11.859  13.557  13.229  1.00  0.00    -0.289 NA
ATOM      3  C   UNL     1      13.154  15.105   9.735  1.00  0.00     0.334 C 
ATOM      4  N   UNL     1      11.982  14.445  10.361  1.00  0.00    -0.326 N 
ATOM      5  C   UNL     1      10.920  14.328   9.330  1.00  0.00     0.334 C 
ATOM      6  C   UNL     1      11.489  15.298  11.491  1.00  0.00     0.279 C 
ATOM      7  C   UNL     1      12.365  13.070  10.816  1.00  0.00     0.279 C 
ATOM      8  C   UNL     1      10.858  14.460  12.611  1.00  0.00     0.146 C 
ATOM      9  C   UNL     1      12.877  13.058  12.268  1.00  0.00     0.146 C 
ENDBRANCH   1   2
BRANCH   1  10
ATOM     10  C   UNL     1      11.674  12.540  15.528  1.00  0.00     0.105 C 
BRANCH  10  11
ATOM     11  O   UNL     1      12.697  13.515  15.601  1.00  0.00    -0.384 OA
ATOM     12  H   UNL     1      12.880  13.861  14.688  1.00  0.00     0.211 HD
ENDBRANCH  10  11
BRANCH  10  13
ATOM     13  C   UNL     1      12.231  11.153  16.033  1.00  0.00     0.027 C 
ATOM     14  C   UNL     1      11.991  10.013  15.010  1.00  0.00     0.007 C 
ATOM     15  C   UNL     1      13.733  11.172  16.418  1.00  0.00     0.007 C 
ATOM     16  C   UNL     1      12.428   8.658  15.581  1.00  0.00     0.000 C 
ATOM     17  C   UNL     1      14.165   9.820  17.000  1.00  0.00     0.000 C 
ATOM     18  C   UNL     1      13.901   8.685  16.005  1.00  0.00     0.000 C 
ENDBRANCH  10  13
BRANCH  10  19
ATOM     19  C   UNL     1      10.517  13.018  16.428  1.00  0.00    -0.015 A 
ATOM     20  C   UNL     1       9.337  13.586  15.893  1.00  0.00     0.007 A 
ATOM     21  C   UNL     1      10.589  12.842  17.829  1.00  0.00     0.007 A 
ATOM     22  C   UNL     1       8.292  13.987  16.729  1.00  0.00     0.000 A 
ATOM     23  C   UNL     1       9.538  13.247  18.658  1.00  0.00     0.000 A 
ATOM     24  C   UNL     1       8.393  13.822  18.109  1.00  0.00     0.000 A 
ENDBRANCH  10  19
ENDBRANCH   1  10
TORSDOF 5
ENDMDL
MODEL 9
REMARK VINA RESULT:    -7.150     10.949     14.380
REMARK INTER + INTRA:         -10.010
REMARK INTER:                  -9.436
REMARK INTRA:                  -0.574
REMARK UNBOUND:                -0.979
REMARK SMILES C[N+]1(C)CCN(CC(O)(c2ccccc2)C2CCCCC2)CC1
REMARK SMILES IDX 7 1 6 2 1 3 2 4 3 5 4 6 23 7 5 8 22 9 8 10 9 11 16 13 17 14
REMARK SMILES IDX 21 15 18 16 20 17 19 18 10 19 11 20 15 21 12 22 14 23 13 24
REMARK H PARENT 9 12
REMARK Flexibility Score: inf
ROOT
ATOM      1  C   UNL     1      18.448  13.801   3.385  1.00  0.00     0.125 C 
ENDROOT
BRANCH   1   2
ATOM      2  N   UNL     1      19.516  13.335   4.306  1.00  0.00    -0.289 NA
ATOM      3  C   UNL     1      23.379  12.598   5.205  1.00  0.00     0.334 C 
ATOM      4  N   UNL     1      22.487  13.638   4.636  1.00  0.00    -0.326 N 
ATOM      5  C   UNL     1      23.322  14.815   4.288  1.00  0.00     0.334 C 
ATOM      6  C   UNL     1      21.475  14.030   5.670  1.00  0.00     0.279 C 
ATOM      7  C   UNL     1      21.844  13.117   3.387  1.00  0.00     0.279 C 
ATOM      8  C   UNL     1      20.144  14.460   5.039  1.00  0.00     0.146 C 
ATOM      9  C   UNL     1      20.500  12.422   3.668  1.00  0.00     0.146 C 
ENDBRANCH   1   2
BRANCH   1  10
ATOM     10  C   UNL     1      17.108  13.030   3.623  1.00  0.00     0.105 C 
BRANCH  10  11
ATOM     11  O   UNL     1      17.413  11.952   4.488  1.00  0.00    -0.384 OA
ATOM     12  H   UNL     1      16.744  11.231   4.354  1.00  0.00     0.211 HD
ENDBRANCH  10  11
BRANCH  10  13
ATOM     13  C   UNL     1      16.495  12.470   2.281  1.00  0.00     0.027 C 
ATOM     14  C   UNL     1      15.117  11.793   2.499  1.00  0.00     0.007 C 
ATOM     15  C   UNL     1      16.361  13.526   1.153  1.00  0.00     0.007 C 
ATOM     16  C   UNL     1      14.607  11.150   1.203  1.00  0.00     0.000 C 
ATOM     17  C   UNL     1      15.863  12.878  -0.145  1.00  0.00     0.000 C 
ATOM     18  C   UNL     1      14.516  12.180   0.072  1.00  0.00     0.000 C 
ENDBRANCH  10  13
BRANCH  10  19
ATOM     19  C   UNL     1      16.088  13.929   4.349  1.00  0.00    -0.015 A 
ATOM     20  C   UNL     1      15.652  15.159   3.802  1.00  0.00     0.007 A 
ATOM     21  C   UNL     1      15.515  13.510   5.571  1.00  0.00     0.007 A 
ATOM     22  C   UNL     1      14.706  15.945   4.468  1.00  0.00     0.000 A 
ATOM     23  C   UNL     1      14.570  14.302   6.231  1.00  0.00     0.000 A 
ATOM     24  C   UNL     1      14.170  15.519   5.681  1.00  0.00     0.000 A 
ENDBRANCH  10  19
ENDBRANCH   1  10
TORSDOF 5
ENDMDL
MODEL 10
REMARK VINA RESULT:    -7.120     11.179     15.276
REMARK INTER + INTRA:          -9.972
REMARK INTER:                  -8.998
REMARK INTRA:                  -0.974
REMARK UNBOUND:                -0.979
REMARK SMILES C[N+]1(C)CCN(CC(O)(c2ccccc2)C2CCCCC2)CC1
REMARK SMILES IDX 7 1 6 2 1 3 2 4 3 5 4 6 23 7 5 8 22 9 8 10 9 11 16 13 17 14
REMARK SMILES IDX 21 15 18 16 20 17 19 18 10 19 11 20 15 21 12 22 14 23 13 24
REMARK H PARENT 9 12
REMARK Flexibility Score: inf
ROOT
ATOM      1  C   UNL     1      18.681  13.205   2.737  1.00  0.00     0.125 C 
ENDROOT
BRANCH   1   2
ATOM      2  N   UNL     1      19.660  14.058   3.458  1.00  0.00    -0.289 NA
ATOM      3  C   UNL     1      22.901  14.564   5.808  1.00  0.00     0.334 C 
ATOM      4  N   UNL     1      22.422  13.820   4.616  1.00  0.00    -0.326 N 
ATOM      5  C   UNL     1      23.541  12.978   4.124  1.00  0.00     0.334 C 
ATOM      6  C   UNL     1      22.031  14.803   3.554  1.00  0.00     0.279 C 
ATOM      7  C   UNL     1      21.284  12.928   5.006  1.00  0.00     0.279 C 
ATOM      8  C   UNL     1      20.896  14.271   2.668  1.00  0.00     0.146 C 
ATOM      9  C   UNL     1      19.919  13.623   4.856  1.00  0.00     0.146 C 
ENDBRANCH   1   2
BRANCH   1  10
ATOM     10  C   UNL     1      17.331  13.958   2.499  1.00  0.00     0.105 C 
BRANCH  10  11
ATOM     11  O   UNL     1      17.618  15.340   2.599  1.00  0.00    -0.384 OA
ATOM     12  H   UNL     1      17.459  15.636   3.533  1.00  0.00     0.211 HD
ENDBRANCH  10  11
BRANCH  10  13
ATOM     13  C   UNL     1      16.234  13.569   3.565  1.00  0.00     0.027 C 
ATOM     14  C   UNL     1      16.565  12.242   4.294  1.00  0.00     0.007 C 
ATOM     15  C   UNL     1      15.959  14.668   4.625  1.00  0.00     0.007 C 
ATOM     16  C   UNL     1      15.423  11.827   5.231  1.00  0.00     0.000 C 
ATOM     17  C   UNL     1      14.808  14.257   5.551  1.00  0.00     0.000 C 
ATOM     18  C   UNL     1      15.116  12.929   6.252  1.00  0.00     0.000 C 
ENDBRANCH  10  13
BRANCH  10  19
ATOM     19  C   UNL     1      16.811  13.697   1.071  1.00  0.00    -0.015 A 
ATOM     20  C   UNL     1      17.440  14.254  -0.068  1.00  0.00     0.007 A 
ATOM     21  C   UNL     1      15.711  12.834   0.862  1.00  0.00     0.007 A 
ATOM     22  C   UNL     1      16.965  13.981  -1.354  1.00  0.00     0.000 A 
ATOM     23  C   UNL     1      15.243  12.567  -0.428  1.00  0.00     0.000 A 
ATOM     24  C   UNL     1      15.867  13.143  -1.534  1.00  0.00     0.000 A 
ENDBRANCH  10  19
ENDBRANCH   1  10
TORSDOF 5
ENDMDL
MODEL 11
REMARK VINA RESULT:    -7.118      2.335      5.892
REMARK INTER + INTRA:          -9.969
REMARK INTER:                  -9.264
REMARK INTRA:                  -0.706
REMARK UNBOUND:                -0.979
REMARK SMILES C[N+]1(C)CCN(CC(O)(c2ccccc2)C2CCCCC2)CC1
REMARK SMILES IDX 7 1 6 2 1 3 2 4 3 5 4 6 23 7 5 8 22 9 8 10 9 11 16 13 17 14
REMARK SMILES IDX 21 15 18 16 20 17 19 18 10 19 11 20 15 21 12 22 14 23 13 24
REMARK H PARENT 9 12
REMARK Flexibility Score: inf
ROOT
ATOM      1  C   UNL     1      11.072  11.407  15.209  1.00  0.00     0.125 C 
ENDROOT
BRANCH   1   2
ATOM      2  N   UNL     1      11.958  10.628  16.111  1.00  0.00    -0.289 NA
ATOM      3  C   UNL     1      12.639   7.627  18.721  1.00  0.00     0.334 C 
ATOM      4  N   UNL     1      12.019   7.916  17.404  1.00  0.00    -0.326 N 
ATOM      5  C   UNL     1      11.470   6.645  16.870  1.00  0.00     0.334 C 
ATOM      6  C   UNL     1      13.074   8.435  16.473  1.00  0.00     0.279 C 
ATOM      7  C   UNL     1      10.895   8.890  17.582  1.00  0.00     0.279 C 
ATOM      8  C   UNL     1      12.500   9.420  15.446  1.00  0.00     0.146 C 
ATOM      9  C   UNL     1      11.360  10.350  17.444  1.00  0.00     0.146 C 
ENDBRANCH   1   2
BRANCH   1  10
ATOM     10  C   UNL     1      11.449  12.925  15.208  1.00  0.00     0.105 C 
BRANCH  10  11
ATOM     11  O   UNL     1      12.318  13.125  16.307  1.00  0.00    -0.384 OA
ATOM     12  H   UNL     1      12.595  12.241  16.665  1.00  0.00     0.211 HD
ENDBRANCH  10  11
BRANCH  10  13
ATOM     13  C   UNL     1      10.183  13.855  15.361  1.00  0.00     0.027 C 
ATOM     14  C   UNL     1       9.489  14.135  14.004  1.00  0.00     0.007 C 
ATOM     15  C   UNL     1       9.125  13.329  16.366  1.00  0.00     0.007 C 
ATOM     16  C   UNL     1       8.341  15.140  14.168  1.00  0.00     0.000 C 
ATOM     17  C   UNL     1       7.985  14.341  16.538  1.00  0.00     0.000 C 
ATOM     18  C   UNL     1       7.315  14.645  15.194  1.00  0.00     0.000 C 
ENDBRANCH  10  13
BRANCH  10  19
ATOM     19  C   UNL     1      12.232  13.287  13.929  1.00  0.00    -0.015 A 
ATOM     20  C   UNL     1      13.114  14.391  13.879  1.00  0.00     0.007 A 
ATOM     21  C   UNL     1      12.125  12.474  12.778  1.00  0.00     0.007 A 
ATOM     22  C   UNL     1      13.833  14.682  12.716  1.00  0.00     0.000 A 
ATOM     23  C   UNL     1      12.846  12.773  11.618  1.00  0.00     0.000 A 
ATOM     24  C   UNL     1      13.696  13.877  11.587  1.00  0.00     0.000 A 
ENDBRANCH  10  19
ENDBRANCH   1  10
TORSDOF 5
ENDMDL
MODEL 12
REMARK VINA RESULT:    -7.117      8.299     12.087
REMARK INTER + INTRA:          -9.968
REMARK INTER:                  -9.510
REMARK INTRA:                  -0.457
REMARK UNBOUND:                -0.979
REMARK SMILES C[N+]1(C)CCN(CC(O)(c2ccccc2)C2CCCCC2)CC1
REMARK SMILES IDX 7 1 6 2 1 3 2 4 3 5 4 6 23 7 5 8 22 9 8 10 9 11 16 13 17 14
REMARK SMILES IDX 21 15 18 16 20 17 19 18 10 19 11 20 15 21 12 22 14 23 13 24
REMARK H PARENT 9 12
REMARK Flexibility Score: inf
ROOT
ATOM      1  C   UNL     1      14.994  14.631   4.581  1.00  0.00     0.125 C 
ENDROOT
BRANCH   1   2
ATOM      2  N   UNL     1      14.101  14.424   5.749  1.00  0.00    -0.289 NA
ATOM      3  C   UNL     1      12.461  15.610   9.239  1.00  0.00     0.334 C 
ATOM      4  N   UNL     1      12.745  16.077   7.859  1.00  0.00    -0.326 N 
ATOM      5  C   UNL     1      12.233  17.465   7.734  1.00  0.00     0.334 C 
ATOM      6  C   UNL     1      12.027  15.190   6.888  1.00  0.00     0.279 C 
ATOM      7  C   UNL     1      14.225  16.087   7.629  1.00  0.00     0.279 C 
ATOM      8  C   UNL     1      12.780  15.068   5.556  1.00  0.00     0.146 C 
ATOM      9  C   UNL     1      14.734  14.753   7.053  1.00  0.00     0.146 C 
ENDBRANCH   1   2
BRANCH   1  10
ATOM     10  C   UNL     1      15.824  13.344   4.259  1.00  0.00     0.105 C 
BRANCH  10  11
ATOM     11  O   UNL     1      15.363  12.338   5.141  1.00  0.00    -0.384 OA
ATOM     12  H   UNL     1      16.121  11.740   5.373  1.00  0.00     0.211 HD
ENDBRANCH  10  11
BRANCH  10  13
ATOM     13  C   UNL     1      17.372  13.563   4.473  1.00  0.00     0.027 C 
ATOM     14  C   UNL     1      18.228  12.732   3.483  1.00  0.00     0.007 C 
ATOM     15  C   UNL     1      17.821  15.046   4.400  1.00  0.00     0.007 C 
ATOM     16  C   UNL     1      19.723  12.868   3.798  1.00  0.00     0.000 C 
ATOM     17  C   UNL     1      19.314  15.181   4.727  1.00  0.00     0.000 C 
ATOM     18  C   UNL     1      20.163  14.336   3.772  1.00  0.00     0.000 C 
ENDBRANCH  10  13
BRANCH  10  19
ATOM     19  C   UNL     1      15.540  12.864   2.821  1.00  0.00    -0.015 A 
ATOM     20  C   UNL     1      15.895  13.636   1.691  1.00  0.00     0.007 A 
ATOM     21  C   UNL     1      14.960  11.595   2.599  1.00  0.00     0.007 A 
ATOM     22  C   UNL     1      15.650  13.167   0.397  1.00  0.00     0.000 A 
ATOM     23  C   UNL     1      14.719  11.133   1.301  1.00  0.00     0.000 A 
ATOM     24  C   UNL     1      15.060  11.920   0.202  1.00  0.00     0.000 A 
ENDBRANCH  10  19
ENDBRANCH   1  10
TORSDOF 5
ENDMDL
MODEL 13
REMARK VINA RESULT:    -6.764      2.447      5.384
REMARK INTER + INTRA:          -9.522
REMARK INTER:                  -9.292
REMARK INTRA:                  -0.230
REMARK UNBOUND:                -0.979
REMARK SMILES C[N+]1(C)CCN(CC(O)(c2ccccc2)C2CCCCC2)CC1
REMARK SMILES IDX 7 1 6 2 1 3 2 4 3 5 4 6 23 7 5 8 22 9 8 10 9 11 16 13 17 14
REMARK SMILES IDX 21 15 18 16 20 17 19 18 10 19 11 20 15 21 12 22 14 23 13 24
REMARK H PARENT 9 12
REMARK Flexibility Score: inf
ROOT
ATOM      1  C   UNL     1      12.302  12.058  16.079  1.00  0.00     0.125 C 
ENDROOT
BRANCH   1   2
ATOM      2  N   UNL     1      12.192  10.640  16.506  1.00  0.00    -0.289 NA
ATOM      3  C   UNL     1      13.258   7.524  18.836  1.00  0.00     0.334 C 
ATOM      4  N   UNL     1      12.874   8.956  18.899  1.00  0.00    -0.326 N 
ATOM      5  C   UNL     1      12.882   9.368  20.325  1.00  0.00     0.334 C 
ATOM      6  C   UNL     1      11.492   9.114  18.340  1.00  0.00     0.279 C 
ATOM      7  C   UNL     1      13.881   9.778  18.154  1.00  0.00     0.279 C 
ATOM      8  C   UNL     1      11.294  10.482  17.674  1.00  0.00     0.146 C 
ATOM      9  C   UNL     1      13.504   9.962  16.673  1.00  0.00     0.146 C 
ENDBRANCH   1   2
BRANCH   1  10
ATOM     10  C   UNL     1      11.666  12.284  14.668  1.00  0.00     0.105 C 
BRANCH  10  11
ATOM     11  O   UNL     1      11.246  11.012  14.209  1.00  0.00    -0.384 OA
ATOM     12  H   UNL     1      12.044  10.488  13.936  1.00  0.00     0.211 HD
ENDBRANCH  10  11
BRANCH  10  13
ATOM     13  C   UNL     1      12.694  12.901  13.642  1.00  0.00     0.027 C 
ATOM     14  C   UNL     1      12.284  12.642  12.169  1.00  0.00     0.007 C 
ATOM     15  C   UNL     1      12.949  14.419  13.832  1.00  0.00     0.007 C 
ATOM     16  C   UNL     1      13.364  13.142  11.200  1.00  0.00     0.000 C 
ATOM     17  C   UNL     1      14.038  14.913  12.871  1.00  0.00     0.000 C 
ATOM     18  C   UNL     1      13.653  14.632  11.415  1.00  0.00     0.000 C 
ENDBRANCH  10  13
BRANCH  10  19
ATOM     19  C   UNL     1      10.411  13.173  14.776  1.00  0.00    -0.015 A 
ATOM     20  C   UNL     1       9.925  13.918  13.677  1.00  0.00     0.007 A 
ATOM     21  C   UNL     1       9.676  13.219  15.982  1.00  0.00     0.007 A 
ATOM     22  C   UNL     1       8.769  14.696  13.793  1.00  0.00     0.000 A 
ATOM     23  C   UNL     1       8.522  14.001  16.091  1.00  0.00     0.000 A 
ATOM     24  C   UNL     1       8.072  14.741  14.998  1.00  0.00     0.000 A 
ENDBRANCH  10  19
ENDBRANCH   1  10
TORSDOF 5
ENDMDL
MODEL 14
REMARK VINA RESULT:    -6.756      4.088      5.819
REMARK INTER + INTRA:          -9.512
REMARK INTER:                  -8.520
REMARK INTRA:                  -0.992
REMARK UNBOUND:                -0.979
REMARK SMILES C[N+]1(C)CCN(CC(O)(c2ccccc2)C2CCCCC2)CC1
REMARK SMILES IDX 7 1 6 2 1 3 2 4 3 5 4 6 23 7 5 8 22 9 8 10 9 11 16 13 17 14
REMARK SMILES IDX 21 15 18 16 20 17 19 18 10 19 11 20 15 21 12 22 14 23 13 24
REMARK H PARENT 9 12
REMARK Flexibility Score: inf
ROOT
ATOM      1  C   UNL     1      14.144  12.211  18.945  1.00  0.00     0.125 C 
ENDROOT
BRANCH   1   2
ATOM      2  N   UNL     1      15.411  12.927  18.649  1.00  0.00    -0.289 NA
ATOM      3  C   UNL     1      17.559  16.301  18.117  1.00  0.00     0.334 C 
ATOM      4  N   UNL     1      16.585  15.665  19.039  1.00  0.00    -0.326 N 
ATOM      5  C   UNL     1      16.329  16.611  20.154  1.00  0.00     0.334 C 
ATOM      6  C   UNL     1      17.182  14.402  19.582  1.00  0.00     0.279 C 
ATOM      7  C   UNL     1      15.298  15.415  18.314  1.00  0.00     0.279 C 
ATOM      8  C   UNL     1      16.113  13.344  19.886  1.00  0.00     0.146 C 
ATOM      9  C   UNL     1      15.260  14.024  17.656  1.00  0.00     0.146 C 
ENDBRANCH   1   2
BRANCH   1  10
ATOM     10  C   UNL     1      14.207  10.719  18.477  1.00  0.00     0.105 C 
BRANCH  10  11
ATOM     11  O   UNL     1      15.482  10.534  17.892  1.00  0.00    -0.384 OA
ATOM     12  H   UNL     1      15.943   9.785  18.353  1.00  0.00     0.211 HD
ENDBRANCH  10  11
BRANCH  10  13
ATOM     13  C   UNL     1      13.088  10.379  17.417  1.00  0.00     0.027 C 
ATOM     14  C   UNL     1      12.193  11.602  17.091  1.00  0.00     0.007 C 
ATOM     15  C   UNL     1      13.627   9.785  16.090  1.00  0.00     0.007 C 
ATOM     16  C   UNL     1      11.040  11.210  16.158  1.00  0.00     0.000 C 
ATOM     17  C   UNL     1      12.473   9.382  15.164  1.00  0.00     0.000 C 
ATOM     18  C   UNL     1      11.567  10.580  14.863  1.00  0.00     0.000 C 
ENDBRANCH  10  13
BRANCH  10  19
ATOM     19  C   UNL     1      14.111   9.768  19.687  1.00  0.00    -0.015 A 
ATOM     20  C   UNL     1      14.032   8.365  19.531  1.00  0.00     0.007 A 
ATOM     21  C   UNL     1      14.159  10.285  21.001  1.00  0.00     0.007 A 
ATOM     22  C   UNL     1      13.972   7.522  20.645  1.00  0.00     0.000 A 
ATOM     23  C   UNL     1      14.099   9.435  22.110  1.00  0.00     0.000 A 
ATOM     24  C   UNL     1      14.002   8.056  21.931  1.00  0.00     0.000 A 
ENDBRANCH  10  19
ENDBRANCH   1  10
TORSDOF 5
ENDMDL
MODEL 15
REMARK VINA RESULT:    -6.705      2.627      5.876
REMARK INTER + INTRA:          -9.448
REMARK INTER:                  -8.465
REMARK INTRA:                  -0.983
REMARK UNBOUND:                -0.979
REMARK SMILES C[N+]1(C)CCN(CC(O)(c2ccccc2)C2CCCCC2)CC1
REMARK SMILES IDX 7 1 6 2 1 3 2 4 3 5 4 6 23 7 5 8 22 9 8 10 9 11 16 13 17 14
REMARK SMILES IDX 21 15 18 16 20 17 19 18 10 19 11 20 15 21 12 22 14 23 13 24
REMARK H PARENT 9 12
REMARK Flexibility Score: inf
ROOT
ATOM      1  C   UNL     1      11.920  12.292  17.521  1.00  0.00     0.125 C 
ENDROOT
BRANCH   1   2
ATOM      2  N   UNL     1      12.002  10.886  17.992  1.00  0.00    -0.289 NA
ATOM      3  C   UNL     1      13.924   7.842  19.813  1.00  0.00     0.334 C 
ATOM      4  N   UNL     1      13.572   9.273  19.982  1.00  0.00    -0.326 N 
ATOM      5  C   UNL     1      14.118   9.726  21.286  1.00  0.00     0.334 C 
ATOM      6  C   UNL     1      12.079   9.409  19.991  1.00  0.00     0.279 C 
ATOM      7  C   UNL     1      14.206  10.078  18.889  1.00  0.00     0.279 C 
ATOM      8  C   UNL     1      11.621  10.757  19.418  1.00  0.00     0.146 C 
ATOM      9  C   UNL     1      13.289  10.219  17.661  1.00  0.00     0.146 C 
ENDBRANCH   1   2
BRANCH   1  10
ATOM     10  C   UNL     1      10.747  12.488  16.504  1.00  0.00     0.105 C 
BRANCH  10  11
ATOM     11  O   UNL     1      10.174  11.210  16.300  1.00  0.00    -0.384 OA
ATOM     12  H   UNL     1       9.234  11.222  16.621  1.00  0.00     0.211 HD
ENDBRANCH  10  11
BRANCH  10  13
ATOM     13  C   UNL     1      11.244  13.069  15.124  1.00  0.00     0.027 C 
ATOM     14  C   UNL     1      12.756  13.412  15.139  1.00  0.00     0.007 C 
ATOM     15  C   UNL     1      10.949  12.156  13.906  1.00  0.00     0.007 C 
ATOM     16  C   UNL     1      13.181  14.090  13.830  1.00  0.00     0.000 C 
ATOM     17  C   UNL     1      11.363  12.841  12.597  1.00  0.00     0.000 C 
ATOM     18  C   UNL     1      12.850  13.211  12.618  1.00  0.00     0.000 C 
ENDBRANCH  10  13
BRANCH  10  19
ATOM     19  C   UNL     1       9.654  13.393  17.109  1.00  0.00    -0.015 A 
ATOM     20  C   UNL     1       9.541  13.601  18.503  1.00  0.00     0.007 A 
ATOM     21  C   UNL     1       8.761  14.090  16.263  1.00  0.00     0.007 A 
ATOM     22  C   UNL     1       8.557  14.446  19.025  1.00  0.00     0.000 A 
ATOM     23  C   UNL     1       7.780  14.933  16.792  1.00  0.00     0.000 A 
ATOM     24  C   UNL     1       7.676  15.108  18.172  1.00  0.00     0.000 A 
ENDBRANCH  10  19
ENDBRANCH   1  10
TORSDOF 5
ENDMDL
