MODEL 1
REMARK VINA RESULT:    -7.463      0.000      0.000
REMARK INTER + INTRA:         -14.265
REMARK INTER:                 -11.826
REMARK INTRA:                  -2.439
REMARK UNBOUND:                -2.439
REMARK SMILES COc1cc(Nc2c(C#N)cnc3cc(OCCCN4CCN(C)CC4)c(OC)cc23)c(Cl)cc1Cl
REMARK SMILES IDX 16 1 15 2 7 3 8 4 31 5 11 6 13 7 30 8 12 9 14 10 27 11 6 12
REMARK SMILES IDX 5 14 3 15 4 16 35 17 34 18 36 19 32 20 33 21 2 22 1 23 9 24
REMARK SMILES IDX 10 25 28 26 29 27 17 28 18 29 19 30 20 31 21 32 26 33 22 34
REMARK SMILES IDX 25 35 23 36 24 37
REMARK H PARENT 6 13
REMARK Flexibility Score: inf
ROOT
ATOM      1  O   UNL     1      11.039  12.881  13.750  1.00  0.00    -0.490 OA
ENDROOT
BRANCH   1   2
ATOM      2  C   UNL     1      11.680  12.123  14.740  1.00  0.00     0.163 A 
ATOM      3  C   UNL     1      13.683   9.830  17.695  1.00  0.00     0.068 A 
ATOM      4  C   UNL     1      13.121   8.591  18.060  1.00  0.00     0.094 A 
ATOM      5  C   UNL     1      13.040  10.613  16.703  1.00  0.00     0.029 A 
ATOM      6  C   UNL     1      11.958   8.145  17.425  1.00  0.00     0.133 A 
ATOM      7  C   UNL     1      11.863  10.114  16.102  1.00  0.00     0.076 A 
ATOM      8  C   UNL     1      13.518  11.878  16.310  1.00  0.00     0.063 A 
ATOM      9  N   UNL     1      11.364   8.909  16.475  1.00  0.00    -0.255 NA
ATOM     10  C   UNL     1      11.189  10.868  15.135  1.00  0.00     0.079 A 
ATOM     11  C   UNL     1      12.856  12.623  15.315  1.00  0.00     0.161 A 
BRANCH   3  12
ATOM     12  N   UNL     1      14.876  10.288  18.359  1.00  0.00    -0.353 N 
ATOM     13  H   UNL     1      15.790  10.000  17.942  1.00  0.00     0.167 HD
BRANCH  12  14
ATOM     14  C   UNL     1      14.878  11.233  19.448  1.00  0.00     0.061 A 
ATOM     15  C   UNL     1      14.036  11.966  21.629  1.00  0.00     0.139 A 
ATOM     16  C   UNL     1      14.016  11.062  20.548  1.00  0.00     0.075 A 
ATOM     17  C   UNL     1      14.919  13.053  21.593  1.00  0.00     0.084 A 
ATOM     18  C   UNL     1      15.766  13.237  20.497  1.00  0.00     0.047 A 
ATOM     19  Cl  UNL     1      14.981  14.202  22.922  1.00  0.00    -0.080 Cl
ATOM     20  C   UNL     1      15.753  12.338  19.429  1.00  0.00     0.066 A 
ATOM     21  Cl  UNL     1      16.877  12.602  18.100  1.00  0.00    -0.082 Cl
BRANCH  15  22
ATOM     22  O   UNL     1      13.203  11.811  22.750  1.00  0.00    -0.495 OA
ATOM     23  C   UNL     1      13.221  10.683  23.621  1.00  0.00     0.278 C 
ENDBRANCH  15  22
ENDBRANCH  12  14
ENDBRANCH   3  12
BRANCH   4  24
ATOM     24  C   UNL     1      13.730   7.764  19.071  1.00  0.00     0.103 C 
ATOM     25  N   UNL     1      14.219   7.102  19.884  1.00  0.00    -0.192 NA
ENDBRANCH   4  24
BRANCH  11  26
ATOM     26  O   UNL     1      13.328  13.871  14.881  1.00  0.00    -0.493 OA
ATOM     27  C   UNL     1      13.454  15.024  15.709  1.00  0.00     0.278 C 
ENDBRANCH  11  26
ENDBRANCH   1   2
BRANCH   1  28
ATOM     28  C   UNL     1       9.830  13.610  13.962  1.00  0.00     0.231 C 
BRANCH  28  29
ATOM     29  C   UNL     1       9.868  14.260  15.344  1.00  0.00     0.057 C 
BRANCH  29  30
ATOM     30  C   UNL     1       8.817  13.642  16.280  1.00  0.00     0.088 C 
BRANCH  30  31
ATOM     31  N   UNL     1       9.432  12.596  17.129  1.00  0.00    -0.301 NA
ATOM     32  C   UNL     1       8.394  11.702  17.679  1.00  0.00     0.100 C 
ATOM     33  C   UNL     1      10.209  13.203  18.234  1.00  0.00     0.100 C 
ATOM     34  C   UNL     1       9.032  10.615  18.552  1.00  0.00     0.099 C 
ATOM     35  C   UNL     1      10.851  12.113  19.095  1.00  0.00     0.099 C 
ATOM     36  N   UNL     1       9.804  11.233  19.647  1.00  0.00    -0.304 NA
ATOM     37  C   UNL     1      10.412  10.194  20.491  1.00  0.00     0.105 C 
ENDBRANCH  30  31
ENDBRANCH  29  30
ENDBRANCH  28  29
ENDBRANCH   1  28
TORSDOF 10
ENDMDL
MODEL 2
REMARK VINA RESULT:    -7.452      4.464      8.570
REMARK INTER + INTRA:         -14.247
REMARK INTER:                 -12.519
REMARK INTRA:                  -1.728
REMARK UNBOUND:                -2.439
REMARK SMILES COc1cc(Nc2c(C#N)cnc3cc(OCCCN4CCN(C)CC4)c(OC)cc23)c(Cl)cc1Cl
REMARK SMILES IDX 16 1 15 2 7 3 8 4 31 5 11 6 13 7 30 8 12 9 14 10 27 11 6 12
REMARK SMILES IDX 5 14 3 15 4 16 35 17 34 18 36 19 32 20 33 21 2 22 1 23 9 24
REMARK SMILES IDX 10 25 28 26 29 27 17 28 18 29 19 30 20 31 21 32 26 33 22 34
REMARK SMILES IDX 25 35 23 36 24 37
REMARK H PARENT 6 13
REMARK Flexibility Score: inf
ROOT
ATOM      1  O   UNL     1      18.737  15.564  19.503  1.00  0.00    -0.490 OA
ENDROOT
BRANCH   1   2
ATOM      2  C   UNL     1      17.838  14.494  19.394  1.00  0.00     0.163 A 
ATOM      3  C   UNL     1      15.083  11.291  19.007  1.00  0.00     0.068 A 
ATOM      4  C   UNL     1      14.345  10.916  20.147  1.00  0.00     0.094 A 
ATOM      5  C   UNL     1      16.004  12.364  19.104  1.00  0.00     0.029 A 
ATOM      6  C   UNL     1      14.515  11.619  21.343  1.00  0.00     0.133 A 
ATOM      7  C   UNL     1      16.139  13.033  20.342  1.00  0.00     0.076 A 
ATOM      8  C   UNL     1      16.805  12.776  18.021  1.00  0.00     0.063 A 
ATOM      9  N   UNL     1      15.398  12.646  21.411  1.00  0.00    -0.255 NA
ATOM     10  C   UNL     1      17.052  14.083  20.482  1.00  0.00     0.079 A 
ATOM     11  C   UNL     1      17.703  13.852  18.155  1.00  0.00     0.161 A 
BRANCH   3  12
ATOM     12  N   UNL     1      14.910  10.556  17.780  1.00  0.00    -0.353 N 
ATOM     13  H   UNL     1      15.435   9.658  17.688  1.00  0.00     0.167 HD
BRANCH  12  14
ATOM     14  C   UNL     1      13.948  10.904  16.764  1.00  0.00     0.061 A 
ATOM     15  C   UNL     1      12.718  12.598  15.491  1.00  0.00     0.139 A 
ATOM     16  C   UNL     1      13.634  12.253  16.504  1.00  0.00     0.075 A 
ATOM     17  C   UNL     1      12.105  11.581  14.748  1.00  0.00     0.084 A 
ATOM     18  C   UNL     1      12.400  10.241  15.012  1.00  0.00     0.047 A 
ATOM     19  Cl  UNL     1      10.960  11.968  13.471  1.00  0.00    -0.080 Cl
ATOM     20  C   UNL     1      13.313   9.896  16.010  1.00  0.00     0.066 A 
ATOM     21  Cl  UNL     1      13.674   8.191  16.262  1.00  0.00    -0.082 Cl
BRANCH  15  22
ATOM     22  O   UNL     1      12.401  13.934  15.193  1.00  0.00    -0.495 OA
ATOM     23  C   UNL     1      13.188  14.787  14.366  1.00  0.00     0.278 C 
ENDBRANCH  15  22
ENDBRANCH  12  14
ENDBRANCH   3  12
BRANCH   4  24
ATOM     24  C   UNL     1      13.406   9.823  20.101  1.00  0.00     0.103 C 
ATOM     25  N   UNL     1      12.653   8.947  20.064  1.00  0.00    -0.192 NA
ENDBRANCH   4  24
BRANCH  11  26
ATOM     26  O   UNL     1      18.489  14.303  17.084  1.00  0.00    -0.493 OA
ATOM     27  C   UNL     1      18.073  15.268  16.121  1.00  0.00     0.278 C 
ENDBRANCH  11  26
ENDBRANCH   1   2
BRANCH   1  28
ATOM     28  C   UNL     1      19.822  15.603  20.429  1.00  0.00     0.231 C 
BRANCH  28  29
ATOM     29  C   UNL     1      20.790  14.463  20.120  1.00  0.00     0.057 C 
BRANCH  29  30
ATOM     30  C   UNL     1      21.479  14.671  18.761  1.00  0.00     0.088 C 
BRANCH  30  31
ATOM     31  N   UNL     1      22.111  13.412  18.304  1.00  0.00    -0.301 NA
ATOM     32  C   UNL     1      22.613  13.559  16.922  1.00  0.00     0.100 C 
ATOM     33  C   UNL     1      21.152  12.286  18.372  1.00  0.00     0.100 C 
ATOM     34  C   UNL     1      23.273  12.257  16.452  1.00  0.00     0.099 C 
ATOM     35  C   UNL     1      21.821  10.988  17.911  1.00  0.00     0.099 C 
ATOM     36  N   UNL     1      22.308  11.144  16.528  1.00  0.00    -0.304 NA
ATOM     37  C   UNL     1      22.936   9.895  16.071  1.00  0.00     0.105 C 
ENDBRANCH  30  31
ENDBRANCH  29  30
ENDBRANCH  28  29
ENDBRANCH   1  28
TORSDOF 10
ENDMDL
MODEL 3
REMARK VINA RESULT:    -7.209      3.544      7.420
REMARK INTER + INTRA:         -13.862
REMARK INTER:                 -11.485
REMARK INTRA:                  -2.377
REMARK UNBOUND:                -2.439
REMARK SMILES COc1cc(Nc2c(C#N)cnc3cc(OCCCN4CCN(C)CC4)c(OC)cc23)c(Cl)cc1Cl
REMARK SMILES IDX 16 1 15 2 7 3 8 4 31 5 11 6 13 7 30 8 12 9 14 10 27 11 6 12
REMARK SMILES IDX 5 14 3 15 4 16 35 17 34 18 36 19 32 20 33 21 2 22 1 23 9 24
REMARK SMILES IDX 10 25 28 26 29 27 17 28 18 29 19 30 20 31 21 32 26 33 22 34
REMARK SMILES IDX 25 35 23 36 24 37
REMARK H PARENT 6 13
REMARK Flexibility Score: inf
ROOT
ATOM      1  O   UNL     1      10.636   7.957  17.227  1.00  0.00    -0.490 OA
ENDROOT
BRANCH   1   2
ATOM      2  C   UNL     1      10.761   9.326  16.950  1.00  0.00     0.163 A 
ATOM      3  C   UNL     1      11.063  13.472  16.103  1.00  0.00     0.068 A 
ATOM      4  C   UNL     1      11.913  13.868  15.051  1.00  0.00     0.094 A 
ATOM      5  C   UNL     1      10.935  12.092  16.402  1.00  0.00     0.029 A 
ATOM      6  C   UNL     1      12.594  12.900  14.309  1.00  0.00     0.133 A 
ATOM      7  C   UNL     1      11.655  11.159  15.623  1.00  0.00     0.076 A 
ATOM      8  C   UNL     1      10.135  11.617  17.460  1.00  0.00     0.063 A 
ATOM      9  N   UNL     1      12.452  11.585  14.610  1.00  0.00    -0.255 NA
ATOM     10  C   UNL     1      11.570   9.791  15.901  1.00  0.00     0.079 A 
ATOM     11  C   UNL     1      10.027  10.238  17.720  1.00  0.00     0.161 A 
BRANCH   3  12
ATOM     12  N   UNL     1      10.370  14.476  16.869  1.00  0.00    -0.353 N 
ATOM     13  H   UNL     1      10.925  14.982  17.595  1.00  0.00     0.167 HD
BRANCH  12  14
ATOM     14  C   UNL     1       9.029  14.921  16.584  1.00  0.00     0.061 A 
ATOM     15  C   UNL     1       7.198  15.273  14.994  1.00  0.00     0.139 A 
ATOM     16  C   UNL     1       8.519  14.869  15.272  1.00  0.00     0.075 A 
ATOM     17  C   UNL     1       6.395  15.746  16.040  1.00  0.00     0.084 A 
ATOM     18  C   UNL     1       6.900  15.814  17.341  1.00  0.00     0.047 A 
ATOM     19  Cl  UNL     1       4.739  16.256  15.739  1.00  0.00    -0.080 Cl
ATOM     20  C   UNL     1       8.205  15.406  17.620  1.00  0.00     0.066 A 
ATOM     21  Cl  UNL     1       8.765  15.477  19.288  1.00  0.00    -0.082 Cl
BRANCH  15  22
ATOM     22  O   UNL     1       6.654  15.214  13.700  1.00  0.00    -0.495 OA
ATOM     23  C   UNL     1       7.261  15.778  12.541  1.00  0.00     0.278 C 
ENDBRANCH  15  22
ENDBRANCH  12  14
ENDBRANCH   3  12
BRANCH   4  24
ATOM     24  C   UNL     1      12.085  15.260  14.717  1.00  0.00     0.103 C 
ATOM     25  N   UNL     1      12.224  16.376  14.449  1.00  0.00    -0.192 NA
ENDBRANCH   4  24
BRANCH  11  26
ATOM     26  O   UNL     1       9.213   9.736  18.747  1.00  0.00    -0.493 OA
ATOM     27  C   UNL     1       9.049  10.344  20.025  1.00  0.00     0.278 C 
ENDBRANCH  11  26
ENDBRANCH   1   2
BRANCH   1  28
ATOM     28  C   UNL     1      11.676   7.160  17.793  1.00  0.00     0.231 C 
BRANCH  28  29
ATOM     29  C   UNL     1      12.194   7.834  19.063  1.00  0.00     0.057 C 
BRANCH  29  30
ATOM     30  C   UNL     1      13.729   7.917  19.063  1.00  0.00     0.088 C 
BRANCH  30  31
ATOM     31  N   UNL     1      14.171   9.330  19.016  1.00  0.00    -0.301 NA
ATOM     32  C   UNL     1      13.123  10.217  19.561  1.00  0.00     0.100 C 
ATOM     33  C   UNL     1      14.499   9.734  17.629  1.00  0.00     0.100 C 
ATOM     34  C   UNL     1      13.585  11.678  19.518  1.00  0.00     0.099 C 
ATOM     35  C   UNL     1      14.969  11.190  17.596  1.00  0.00     0.099 C 
ATOM     36  N   UNL     1      13.911  12.067  18.133  1.00  0.00    -0.304 NA
ATOM     37  C   UNL     1      14.348  13.470  18.087  1.00  0.00     0.105 C 
ENDBRANCH  30  31
ENDBRANCH  29  30
ENDBRANCH  28  29
ENDBRANCH   1  28
TORSDOF 10
ENDMDL
MODEL 4
REMARK VINA RESULT:    -7.174      4.371      7.991
REMARK INTER + INTRA:         -13.807
REMARK INTER:                 -12.423
REMARK INTRA:                  -1.383
REMARK UNBOUND:                -2.439
REMARK SMILES COc1cc(Nc2c(C#N)cnc3cc(OCCCN4CCN(C)CC4)c(OC)cc23)c(Cl)cc1Cl
REMARK SMILES IDX 16 1 15 2 7 3 8 4 31 5 11 6 13 7 30 8 12 9 14 10 27 11 6 12
REMARK SMILES IDX 5 14 3 15 4 16 35 17 34 18 36 19 32 20 33 21 2 22 1 23 9 24
REMARK SMILES IDX 10 25 28 26 29 27 17 28 18 29 19 30 20 31 21 32 26 33 22 34
REMARK SMILES IDX 25 35 23 36 24 37
REMARK H PARENT 6 13
REMARK Flexibility Score: inf
ROOT
ATOM      1  O   UNL     1      16.589  13.530  19.401  1.00  0.00    -0.490 OA
ENDROOT
BRANCH   1   2
ATOM      2  C   UNL     1      15.666  12.637  18.838  1.00  0.00     0.163 A 
ATOM      3  C   UNL     1      12.820   9.987  17.143  1.00  0.00     0.068 A 
ATOM      4  C   UNL     1      12.696   8.703  17.711  1.00  0.00     0.094 A 
ATOM      5  C   UNL     1      13.756  10.897  17.695  1.00  0.00     0.029 A 
ATOM      6  C   UNL     1      13.477   8.358  18.817  1.00  0.00     0.133 A 
ATOM      7  C   UNL     1      14.524  10.489  18.809  1.00  0.00     0.076 A 
ATOM      8  C   UNL     1      13.965  12.184  17.163  1.00  0.00     0.063 A 
ATOM      9  N   UNL     1      14.363   9.247  19.331  1.00  0.00    -0.255 NA
ATOM     10  C   UNL     1      15.473  11.352  19.367  1.00  0.00     0.079 A 
ATOM     11  C   UNL     1      14.899  13.063  17.745  1.00  0.00     0.161 A 
BRANCH   3  12
ATOM     12  N   UNL     1      12.018  10.334  15.998  1.00  0.00    -0.353 N 
ATOM     13  H   UNL     1      12.096   9.714  15.161  1.00  0.00     0.167 HD
BRANCH  12  14
ATOM     14  C   UNL     1      11.016  11.370  16.003  1.00  0.00     0.061 A 
ATOM     15  C   UNL     1       9.123  12.494  17.080  1.00  0.00     0.139 A 
ATOM     16  C   UNL     1      10.084  11.463  17.055  1.00  0.00     0.075 A 
ATOM     17  C   UNL     1       9.093  13.424  16.033  1.00  0.00     0.084 A 
ATOM     18  C   UNL     1      10.005  13.329  14.979  1.00  0.00     0.047 A 
ATOM     19  Cl  UNL     1       7.915  14.729  16.027  1.00  0.00    -0.080 Cl
ATOM     20  C   UNL     1      10.963  12.313  14.956  1.00  0.00     0.066 A 
ATOM     21  Cl  UNL     1      12.111  12.276  13.621  1.00  0.00    -0.082 Cl
BRANCH  15  22
ATOM     22  O   UNL     1       8.194  12.625  18.125  1.00  0.00    -0.495 OA
ATOM     23  C   UNL     1       8.330  12.020  19.408  1.00  0.00     0.278 C 
ENDBRANCH  15  22
ENDBRANCH  12  14
ENDBRANCH   3  12
BRANCH   4  24
ATOM     24  C   UNL     1      11.767   7.739  17.177  1.00  0.00     0.103 C 
ATOM     25  N   UNL     1      11.021   6.966  16.749  1.00  0.00    -0.192 NA
ENDBRANCH   4  24
BRANCH  11  26
ATOM     26  O   UNL     1      15.105  14.362  17.255  1.00  0.00    -0.493 OA
ATOM     27  C   UNL     1      14.094  15.178  16.667  1.00  0.00     0.278 C 
ENDBRANCH  11  26
ENDBRANCH   1   2
BRANCH   1  28
ATOM     28  C   UNL     1      17.952  13.204  19.671  1.00  0.00     0.231 C 
BRANCH  28  29
ATOM     29  C   UNL     1      18.680  12.947  18.353  1.00  0.00     0.057 C 
BRANCH  29  30
ATOM     30  C   UNL     1      19.960  12.127  18.575  1.00  0.00     0.088 C 
BRANCH  30  31
ATOM     31  N   UNL     1      20.980  12.474  17.558  1.00  0.00    -0.301 NA
ATOM     32  C   UNL     1      22.000  11.410  17.466  1.00  0.00     0.100 C 
ATOM     33  C   UNL     1      21.630  13.765  17.883  1.00  0.00     0.100 C 
ATOM     34  C   UNL     1      23.051  11.767  16.409  1.00  0.00     0.099 C 
ATOM     35  C   UNL     1      22.670  14.120  16.818  1.00  0.00     0.099 C 
ATOM     36  N   UNL     1      23.688  13.055  16.742  1.00  0.00    -0.304 NA
ATOM     37  C   UNL     1      24.702  13.398  15.734  1.00  0.00     0.105 C 
ENDBRANCH  30  31
ENDBRANCH  29  30
ENDBRANCH  28  29
ENDBRANCH   1  28
TORSDOF 10
ENDMDL
MODEL 5
REMARK VINA RESULT:    -7.137      2.967      6.566
REMARK INTER + INTRA:         -13.748
REMARK INTER:                 -11.732
REMARK INTRA:                  -2.015
REMARK UNBOUND:                -2.439
REMARK SMILES COc1cc(Nc2c(C#N)cnc3cc(OCCCN4CCN(C)CC4)c(OC)cc23)c(Cl)cc1Cl
REMARK SMILES IDX 16 1 15 2 7 3 8 4 31 5 11 6 13 7 30 8 12 9 14 10 27 11 6 12
REMARK SMILES IDX 5 14 3 15 4 16 35 17 34 18 36 19 32 20 33 21 2 22 1 23 9 24
REMARK SMILES IDX 10 25 28 26 29 27 17 28 18 29 19 30 20 31 21 32 26 33 22 34
REMARK SMILES IDX 25 35 23 36 24 37
REMARK H PARENT 6 13
REMARK Flexibility Score: inf
ROOT
ATOM      1  O   UNL     1      13.090   8.515  16.051  1.00  0.00    -0.490 OA
ENDROOT
BRANCH   1   2
ATOM      2  C   UNL     1      12.933   9.888  15.817  1.00  0.00     0.163 A 
ATOM      3  C   UNL     1      12.442  14.054  15.183  1.00  0.00     0.068 A 
ATOM      4  C   UNL     1      11.536  14.466  14.186  1.00  0.00     0.094 A 
ATOM      5  C   UNL     1      12.619  12.668  15.424  1.00  0.00     0.029 A 
ATOM      6  C   UNL     1      10.813  13.508  13.469  1.00  0.00     0.133 A 
ATOM      7  C   UNL     1      11.867  11.746  14.662  1.00  0.00     0.076 A 
ATOM      8  C   UNL     1      13.531  12.176  16.377  1.00  0.00     0.063 A 
ATOM      9  N   UNL     1      10.996  12.188  13.720  1.00  0.00    -0.255 NA
ATOM     10  C   UNL     1      12.031  10.370  14.856  1.00  0.00     0.079 A 
ATOM     11  C   UNL     1      13.673  10.791  16.592  1.00  0.00     0.161 A 
BRANCH   3  12
ATOM     12  N   UNL     1      13.189  15.047  15.912  1.00  0.00    -0.353 N 
ATOM     13  H   UNL     1      12.728  15.463  16.752  1.00  0.00     0.167 HD
BRANCH  12  14
ATOM     14  C   UNL     1      14.569  15.369  15.646  1.00  0.00     0.061 A 
ATOM     15  C   UNL     1      16.304  16.203  14.130  1.00  0.00     0.139 A 
ATOM     16  C   UNL     1      14.962  15.857  14.385  1.00  0.00     0.075 A 
ATOM     17  C   UNL     1      17.254  16.043  15.146  1.00  0.00     0.084 A 
ATOM     18  C   UNL     1      16.874  15.545  16.396  1.00  0.00     0.047 A 
ATOM     19  Cl  UNL     1      18.939  16.467  14.874  1.00  0.00    -0.080 Cl
ATOM     20  C   UNL     1      15.544  15.209  16.652  1.00  0.00     0.066 A 
ATOM     21  Cl  UNL     1      15.123  14.628  18.261  1.00  0.00    -0.082 Cl
BRANCH  15  22
ATOM     22  O   UNL     1      16.723  16.712  12.890  1.00  0.00    -0.495 OA
ATOM     23  C   UNL     1      16.672  18.088  12.521  1.00  0.00     0.278 C 
ENDBRANCH  15  22
ENDBRANCH  12  14
ENDBRANCH   3  12
BRANCH   4  24
ATOM     24  C   UNL     1      11.330  15.863  13.896  1.00  0.00     0.103 C 
ATOM     25  N   UNL     1      11.165  16.983  13.663  1.00  0.00    -0.192 NA
ENDBRANCH   4  24
BRANCH  11  26
ATOM     26  O   UNL     1      14.551  10.274  17.558  1.00  0.00    -0.493 OA
ATOM     27  C   UNL     1      15.162  11.040  18.593  1.00  0.00     0.278 C 
ENDBRANCH  11  26
ENDBRANCH   1   2
BRANCH   1  28
ATOM     28  C   UNL     1      12.014   7.631  16.365  1.00  0.00     0.231 C 
BRANCH  28  29
ATOM     29  C   UNL     1      11.648   7.786  17.839  1.00  0.00     0.057 C 
BRANCH  29  30
ATOM     30  C   UNL     1      12.820   7.383  18.749  1.00  0.00     0.088 C 
BRANCH  30  31
ATOM     31  N   UNL     1      12.742   8.102  20.042  1.00  0.00    -0.301 NA
ATOM     32  C   UNL     1      12.166   9.448  19.850  1.00  0.00     0.100 C 
ATOM     33  C   UNL     1      14.082   8.214  20.663  1.00  0.00     0.100 C 
ATOM     34  C   UNL     1      12.079  10.188  21.190  1.00  0.00     0.099 C 
ATOM     35  C   UNL     1      13.987   8.945  22.005  1.00  0.00     0.099 C 
ATOM     36  N   UNL     1      13.419  10.291  21.799  1.00  0.00    -0.304 NA
ATOM     37  C   UNL     1      13.342  11.006  23.082  1.00  0.00     0.105 C 
ENDBRANCH  30  31
ENDBRANCH  29  30
ENDBRANCH  28  29
ENDBRANCH   1  28
TORSDOF 10
ENDMDL
MODEL 6
REMARK VINA RESULT:    -7.052      2.874      6.235
REMARK INTER + INTRA:         -13.613
REMARK INTER:                 -11.205
REMARK INTRA:                  -2.409
REMARK UNBOUND:                -2.439
REMARK SMILES COc1cc(Nc2c(C#N)cnc3cc(OCCCN4CCN(C)CC4)c(OC)cc23)c(Cl)cc1Cl
REMARK SMILES IDX 16 1 15 2 7 3 8 4 31 5 11 6 13 7 30 8 12 9 14 10 27 11 6 12
REMARK SMILES IDX 5 14 3 15 4 16 35 17 34 18 36 19 32 20 33 21 2 22 1 23 9 24
REMARK SMILES IDX 10 25 28 26 29 27 17 28 18 29 19 30 20 31 21 32 26 33 22 34
REMARK SMILES IDX 25 35 23 36 24 37
REMARK H PARENT 6 13
REMARK Flexibility Score: inf
ROOT
ATOM      1  O   UNL     1      13.199   8.463  16.087  1.00  0.00    -0.490 OA
ENDROOT
BRANCH   1   2
ATOM      2  C   UNL     1      13.028   9.836  15.864  1.00  0.00     0.163 A 
ATOM      3  C   UNL     1      12.494  14.002  15.263  1.00  0.00     0.068 A 
ATOM      4  C   UNL     1      11.559  14.412  14.292  1.00  0.00     0.094 A 
ATOM      5  C   UNL     1      12.686  12.616  15.492  1.00  0.00     0.029 A 
ATOM      6  C   UNL     1      10.823  13.453  13.591  1.00  0.00     0.133 A 
ATOM      7  C   UNL     1      11.920  11.692  14.747  1.00  0.00     0.076 A 
ATOM      8  C   UNL     1      13.626  12.125  16.419  1.00  0.00     0.063 A 
ATOM      9  N   UNL     1      11.021  12.133  13.830  1.00  0.00    -0.255 NA
ATOM     10  C   UNL     1      12.096  10.317  14.930  1.00  0.00     0.079 A 
ATOM     11  C   UNL     1      13.782  10.740  16.624  1.00  0.00     0.161 A 
BRANCH   3  12
ATOM     12  N   UNL     1      13.255  14.996  15.977  1.00  0.00    -0.353 N 
ATOM     13  H   UNL     1      12.815  15.403  16.832  1.00  0.00     0.167 HD
BRANCH  12  14
ATOM     14  C   UNL     1      14.623  15.331  15.672  1.00  0.00     0.061 A 
ATOM     15  C   UNL     1      16.305  16.198  14.115  1.00  0.00     0.139 A 
ATOM     16  C   UNL     1      14.973  15.840  14.406  1.00  0.00     0.075 A 
ATOM     17  C   UNL     1      17.288  16.030  15.098  1.00  0.00     0.084 A 
ATOM     18  C   UNL     1      16.950  15.512  16.351  1.00  0.00     0.047 A 
ATOM     19  Cl  UNL     1      18.960  16.469  14.779  1.00  0.00    -0.080 Cl
ATOM     20  C   UNL     1      15.630  15.163  16.644  1.00  0.00     0.066 A 
ATOM     21  Cl  UNL     1      15.264  14.557  18.257  1.00  0.00    -0.082 Cl
BRANCH  15  22
ATOM     22  O   UNL     1      16.681  16.727  12.869  1.00  0.00    -0.495 OA
ATOM     23  C   UNL     1      16.605  18.107  12.520  1.00  0.00     0.278 C 
ENDBRANCH  15  22
ENDBRANCH  12  14
ENDBRANCH   3  12
BRANCH   4  24
ATOM     24  C   UNL     1      11.337  15.809  14.015  1.00  0.00     0.103 C 
ATOM     25  N   UNL     1      11.159  16.930  13.792  1.00  0.00    -0.192 NA
ENDBRANCH   4  24
BRANCH  11  26
ATOM     26  O   UNL     1      14.689  10.224  17.563  1.00  0.00    -0.493 OA
ATOM     27  C   UNL     1      14.760  10.626  18.928  1.00  0.00     0.278 C 
ENDBRANCH  11  26
ENDBRANCH   1   2
BRANCH   1  28
ATOM     28  C   UNL     1      12.195   7.614  16.645  1.00  0.00     0.231 C 
BRANCH  28  29
ATOM     29  C   UNL     1      12.025   7.940  18.127  1.00  0.00     0.057 C 
BRANCH  29  30
ATOM     30  C   UNL     1      10.662   8.595  18.401  1.00  0.00     0.088 C 
BRANCH  30  31
ATOM     31  N   UNL     1      10.741  10.060  18.196  1.00  0.00    -0.301 NA
ATOM     32  C   UNL     1      11.123  10.737  19.451  1.00  0.00     0.100 C 
ATOM     33  C   UNL     1       9.447  10.594  17.712  1.00  0.00     0.100 C 
ATOM     34  C   UNL     1      11.211  12.252  19.236  1.00  0.00     0.099 C 
ATOM     35  C   UNL     1       9.545  12.106  17.490  1.00  0.00     0.099 C 
ATOM     36  N   UNL     1       9.918  12.771  18.752  1.00  0.00    -0.304 NA
ATOM     37  C   UNL     1       9.996  14.226  18.551  1.00  0.00     0.105 C 
ENDBRANCH  30  31
ENDBRANCH  29  30
ENDBRANCH  28  29
ENDBRANCH   1  28
TORSDOF 10
ENDMDL
MODEL 7
REMARK VINA RESULT:    -7.044      4.006      7.381
REMARK INTER + INTRA:         -13.601
REMARK INTER:                 -12.021
REMARK INTRA:                  -1.580
REMARK UNBOUND:                -2.439
REMARK SMILES COc1cc(Nc2c(C#N)cnc3cc(OCCCN4CCN(C)CC4)c(OC)cc23)c(Cl)cc1Cl
REMARK SMILES IDX 16 1 15 2 7 3 8 4 31 5 11 6 13 7 30 8 12 9 14 10 27 11 6 12
REMARK SMILES IDX 5 14 3 15 4 16 35 17 34 18 36 19 32 20 33 21 2 22 1 23 9 24
REMARK SMILES IDX 10 25 28 26 29 27 17 28 18 29 19 30 20 31 21 32 26 33 22 34
REMARK SMILES IDX 25 35 23 36 24 37
REMARK H PARENT 6 13
REMARK Flexibility Score: inf
ROOT
ATOM      1  O   UNL     1      16.571  13.460  19.466  1.00  0.00    -0.490 OA
ENDROOT
BRANCH   1   2
ATOM      2  C   UNL     1      15.653  12.571  18.889  1.00  0.00     0.163 A 
ATOM      3  C   UNL     1      12.822   9.932  17.151  1.00  0.00     0.068 A 
ATOM      4  C   UNL     1      12.687   8.648  17.715  1.00  0.00     0.094 A 
ATOM      5  C   UNL     1      13.754  10.839  17.717  1.00  0.00     0.029 A 
ATOM      6  C   UNL     1      13.452   8.298  18.831  1.00  0.00     0.133 A 
ATOM      7  C   UNL     1      14.506  10.426  18.840  1.00  0.00     0.076 A 
ATOM      8  C   UNL     1      13.973  12.126  17.191  1.00  0.00     0.063 A 
ATOM      9  N   UNL     1      14.333   9.183  19.358  1.00  0.00    -0.255 NA
ATOM     10  C   UNL     1      15.449  11.285  19.413  1.00  0.00     0.079 A 
ATOM     11  C   UNL     1      14.902  13.001  17.786  1.00  0.00     0.161 A 
BRANCH   3  12
ATOM     12  N   UNL     1      12.036  10.283  15.996  1.00  0.00    -0.353 N 
ATOM     13  H   UNL     1      12.121   9.662  15.161  1.00  0.00     0.167 HD
BRANCH  12  14
ATOM     14  C   UNL     1      11.041  11.327  15.988  1.00  0.00     0.061 A 
ATOM     15  C   UNL     1       9.135  12.456  17.035  1.00  0.00     0.139 A 
ATOM     16  C   UNL     1      10.089  11.419  17.023  1.00  0.00     0.075 A 
ATOM     17  C   UNL     1       9.131  13.393  15.994  1.00  0.00     0.084 A 
ATOM     18  C   UNL     1      10.063  13.298  14.957  1.00  0.00     0.047 A 
ATOM     19  Cl  UNL     1       7.962  14.705  15.973  1.00  0.00    -0.080 Cl
ATOM     20  C   UNL     1      11.014  12.276  14.947  1.00  0.00     0.066 A 
ATOM     21  Cl  UNL     1      12.188  12.240  13.634  1.00  0.00    -0.082 Cl
BRANCH  15  22
ATOM     22  O   UNL     1       8.186  12.587  18.063  1.00  0.00    -0.495 OA
ATOM     23  C   UNL     1       8.371  12.122  19.398  1.00  0.00     0.278 C 
ENDBRANCH  15  22
ENDBRANCH  12  14
ENDBRANCH   3  12
BRANCH   4  24
ATOM     24  C   UNL     1      11.762   7.687  17.167  1.00  0.00     0.103 C 
ATOM     25  N   UNL     1      11.020   6.916  16.728  1.00  0.00    -0.192 NA
ENDBRANCH   4  24
BRANCH  11  26
ATOM     26  O   UNL     1      15.118  14.300  17.301  1.00  0.00    -0.493 OA
ATOM     27  C   UNL     1      14.364  15.446  17.687  1.00  0.00     0.278 C 
ENDBRANCH  11  26
ENDBRANCH   1   2
BRANCH   1  28
ATOM     28  C   UNL     1      17.987  13.283  19.425  1.00  0.00     0.231 C 
BRANCH  28  29
ATOM     29  C   UNL     1      18.474  13.450  17.987  1.00  0.00     0.057 C 
BRANCH  29  30
ATOM     30  C   UNL     1      18.578  14.935  17.603  1.00  0.00     0.088 C 
BRANCH  30  31
ATOM     31  N   UNL     1      18.918  15.076  16.168  1.00  0.00    -0.301 NA
ATOM     32  C   UNL     1      20.085  15.966  15.999  1.00  0.00     0.100 C 
ATOM     33  C   UNL     1      17.767  15.609  15.404  1.00  0.00     0.100 C 
ATOM     34  C   UNL     1      20.440  16.105  14.515  1.00  0.00     0.099 C 
ATOM     35  C   UNL     1      18.125  15.736  13.921  1.00  0.00     0.099 C 
ATOM     36  N   UNL     1      19.285  16.634  13.765  1.00  0.00    -0.304 NA
ATOM     37  C   UNL     1      19.624  16.776  12.341  1.00  0.00     0.105 C 
ENDBRANCH  30  31
ENDBRANCH  29  30
ENDBRANCH  28  29
ENDBRANCH   1  28
TORSDOF 10
ENDMDL
MODEL 8
REMARK VINA RESULT:    -7.036      2.721      4.412
REMARK INTER + INTRA:         -13.587
REMARK INTER:                 -12.318
REMARK INTRA:                  -1.269
REMARK UNBOUND:                -2.439
REMARK SMILES COc1cc(Nc2c(C#N)cnc3cc(OCCCN4CCN(C)CC4)c(OC)cc23)c(Cl)cc1Cl
REMARK SMILES IDX 16 1 15 2 7 3 8 4 31 5 11 6 13 7 30 8 12 9 14 10 27 11 6 12
REMARK SMILES IDX 5 14 3 15 4 16 35 17 34 18 36 19 32 20 33 21 2 22 1 23 9 24
REMARK SMILES IDX 10 25 28 26 29 27 17 28 18 29 19 30 20 31 21 32 26 33 22 34
REMARK SMILES IDX 25 35 23 36 24 37
REMARK H PARENT 6 13
REMARK Flexibility Score: inf
ROOT
ATOM      1  O   UNL     1      11.018  13.214  13.845  1.00  0.00    -0.490 OA
ENDROOT
BRANCH   1   2
ATOM      2  C   UNL     1      11.635  12.399  14.804  1.00  0.00     0.163 A 
ATOM      3  C   UNL     1      13.568   9.929  17.661  1.00  0.00     0.068 A 
ATOM      4  C   UNL     1      12.932   8.726  18.029  1.00  0.00     0.094 A 
ATOM      5  C   UNL     1      12.950  10.770  16.701  1.00  0.00     0.029 A 
ATOM      6  C   UNL     1      11.722   8.372  17.428  1.00  0.00     0.133 A 
ATOM      7  C   UNL     1      11.721  10.363  16.134  1.00  0.00     0.076 A 
ATOM      8  C   UNL     1      13.502  12.004  16.308  1.00  0.00     0.063 A 
ATOM      9  N   UNL     1      11.152   9.189  16.508  1.00  0.00    -0.255 NA
ATOM     10  C   UNL     1      11.071  11.175  15.199  1.00  0.00     0.079 A 
ATOM     11  C   UNL     1      12.862  12.807  15.345  1.00  0.00     0.161 A 
BRANCH   3  12
ATOM     12  N   UNL     1      14.811  10.293  18.291  1.00  0.00    -0.353 N 
ATOM     13  H   UNL     1      15.689  10.015  17.799  1.00  0.00     0.167 HD
BRANCH  12  14
ATOM     14  C   UNL     1      14.905  11.141  19.453  1.00  0.00     0.061 A 
ATOM     15  C   UNL     1      14.371  11.599  21.800  1.00  0.00     0.139 A 
ATOM     16  C   UNL     1      14.256  10.790  20.653  1.00  0.00     0.075 A 
ATOM     17  C   UNL     1      15.131  12.774  21.733  1.00  0.00     0.084 A 
ATOM     18  C   UNL     1      15.766  13.136  20.542  1.00  0.00     0.047 A 
ATOM     19  Cl  UNL     1      15.306  13.810  23.142  1.00  0.00    -0.080 Cl
ATOM     20  C   UNL     1      15.659  12.331  19.406  1.00  0.00     0.066 A 
ATOM     21  Cl  UNL     1      16.520  12.821  17.950  1.00  0.00    -0.082 Cl
BRANCH  15  22
ATOM     22  O   UNL     1      13.753  11.266  23.017  1.00  0.00    -0.495 OA
ATOM     23  C   UNL     1      13.058  10.046  23.262  1.00  0.00     0.278 C 
ENDBRANCH  15  22
ENDBRANCH  12  14
ENDBRANCH   3  12
BRANCH   4  24
ATOM     24  C   UNL     1      13.515   7.845  19.009  1.00  0.00     0.103 C 
ATOM     25  N   UNL     1      13.982   7.138  19.797  1.00  0.00    -0.192 NA
ENDBRANCH   4  24
BRANCH  11  26
ATOM     26  O   UNL     1      13.406  14.026  14.912  1.00  0.00    -0.493 OA
ATOM     27  C   UNL     1      13.947  15.026  15.771  1.00  0.00     0.278 C 
ENDBRANCH  11  26
ENDBRANCH   1   2
BRANCH   1  28
ATOM     28  C   UNL     1      10.993  12.924  12.448  1.00  0.00     0.231 C 
BRANCH  28  29
ATOM     29  C   UNL     1      10.689  14.204  11.672  1.00  0.00     0.057 C 
BRANCH  29  30
ATOM     30  C   UNL     1       9.437  14.040  10.796  1.00  0.00     0.088 C 
BRANCH  30  31
ATOM     31  N   UNL     1       8.546  15.215  10.942  1.00  0.00    -0.301 NA
ATOM     32  C   UNL     1       7.767  15.120  12.193  1.00  0.00     0.100 C 
ATOM     33  C   UNL     1       7.627  15.325   9.786  1.00  0.00     0.100 C 
ATOM     34  C   UNL     1       6.851  16.339  12.346  1.00  0.00     0.099 C 
ATOM     35  C   UNL     1       6.722  16.550   9.940  1.00  0.00     0.099 C 
ATOM     36  N   UNL     1       5.943  16.439  11.188  1.00  0.00    -0.304 NA
ATOM     37  C   UNL     1       5.057  17.604  11.334  1.00  0.00     0.105 C 
ENDBRANCH  30  31
ENDBRANCH  29  30
ENDBRANCH  28  29
ENDBRANCH   1  28
TORSDOF 10
ENDMDL
MODEL 9
REMARK VINA RESULT:    -7.000      3.170      7.508
REMARK INTER + INTRA:         -13.532
REMARK INTER:                 -11.420
REMARK INTRA:                  -2.112
REMARK UNBOUND:                -2.439
REMARK SMILES COc1cc(Nc2c(C#N)cnc3cc(OCCCN4CCN(C)CC4)c(OC)cc23)c(Cl)cc1Cl
REMARK SMILES IDX 16 1 15 2 7 3 8 4 31 5 11 6 13 7 30 8 12 9 14 10 27 11 6 12
REMARK SMILES IDX 5 14 3 15 4 16 35 17 34 18 36 19 32 20 33 21 2 22 1 23 9 24
REMARK SMILES IDX 10 25 28 26 29 27 17 28 18 29 19 30 20 31 21 32 26 33 22 34
REMARK SMILES IDX 25 35 23 36 24 37
REMARK H PARENT 6 13
REMARK Flexibility Score: inf
ROOT
ATOM      1  O   UNL     1      10.785   7.753  17.172  1.00  0.00    -0.490 OA
ENDROOT
BRANCH   1   2
ATOM      2  C   UNL     1      10.577   9.137  17.094  1.00  0.00     0.163 A 
ATOM      3  C   UNL     1      10.024  13.337  16.863  1.00  0.00     0.068 A 
ATOM      4  C   UNL     1       9.151  13.938  17.793  1.00  0.00     0.094 A 
ATOM      5  C   UNL     1      10.235  11.936  16.923  1.00  0.00     0.029 A 
ATOM      6  C   UNL     1       8.531  13.152  18.767  1.00  0.00     0.133 A 
ATOM      7  C   UNL     1       9.574  11.192  17.925  1.00  0.00     0.076 A 
ATOM      8  C   UNL     1      11.062  11.256  16.009  1.00  0.00     0.063 A 
ATOM      9  N   UNL     1       8.752  11.815  18.808  1.00  0.00    -0.255 NA
ATOM     10  C   UNL     1       9.741   9.805  18.003  1.00  0.00     0.079 A 
ATOM     11  C   UNL     1      11.254   9.864  16.106  1.00  0.00     0.161 A 
BRANCH   3  12
ATOM     12  N   UNL     1      10.654  14.151  15.856  1.00  0.00    -0.353 N 
ATOM     13  H   UNL     1      11.536  14.639  16.127  1.00  0.00     0.167 HD
BRANCH  12  14
ATOM     14  C   UNL     1      10.229  14.197  14.479  1.00  0.00     0.061 A 
ATOM     15  C   UNL     1       8.510  14.670  12.798  1.00  0.00     0.139 A 
ATOM     16  C   UNL     1       8.919  14.593  14.144  1.00  0.00     0.075 A 
ATOM     17  C   UNL     1       9.420  14.333  11.788  1.00  0.00     0.084 A 
ATOM     18  C   UNL     1      10.716  13.925  12.114  1.00  0.00     0.047 A 
ATOM     19  Cl  UNL     1       8.953  14.420  10.095  1.00  0.00    -0.080 Cl
ATOM     20  C   UNL     1      11.126  13.856  13.446  1.00  0.00     0.066 A 
ATOM     21  Cl  UNL     1      12.786  13.377  13.787  1.00  0.00    -0.082 Cl
BRANCH  15  22
ATOM     22  O   UNL     1       7.218  15.081  12.431  1.00  0.00    -0.495 OA
ATOM     23  C   UNL     1       6.850  16.426  12.137  1.00  0.00     0.278 C 
ENDBRANCH  15  22
ENDBRANCH  12  14
ENDBRANCH   3  12
BRANCH   4  24
ATOM     24  C   UNL     1       8.895  15.356  17.764  1.00  0.00     0.103 C 
ATOM     25  N   UNL     1       8.688  16.494  17.741  1.00  0.00    -0.192 NA
ENDBRANCH   4  24
BRANCH  11  26
ATOM     26  O   UNL     1      12.097   9.166  15.228  1.00  0.00    -0.493 OA
ATOM     27  C   UNL     1      13.509   9.047  15.380  1.00  0.00     0.278 C 
ENDBRANCH  11  26
ENDBRANCH   1   2
BRANCH   1  28
ATOM     28  C   UNL     1      11.417   7.102  18.274  1.00  0.00     0.231 C 
BRANCH  28  29
ATOM     29  C   UNL     1      12.847   7.621  18.413  1.00  0.00     0.057 C 
BRANCH  29  30
ATOM     30  C   UNL     1      13.204   7.882  19.886  1.00  0.00     0.088 C 
BRANCH  30  31
ATOM     31  N   UNL     1      12.984   9.307  20.227  1.00  0.00    -0.301 NA
ATOM     32  C   UNL     1      13.401  10.176  19.107  1.00  0.00     0.100 C 
ATOM     33  C   UNL     1      13.729   9.676  21.453  1.00  0.00     0.100 C 
ATOM     34  C   UNL     1      13.166  11.649  19.459  1.00  0.00     0.099 C 
ATOM     35  C   UNL     1      13.481  11.146  21.803  1.00  0.00     0.099 C 
ATOM     36  N   UNL     1      13.910  12.004  20.683  1.00  0.00    -0.304 NA
ATOM     37  C   UNL     1      13.693  13.418  21.019  1.00  0.00     0.105 C 
ENDBRANCH  30  31
ENDBRANCH  29  30
ENDBRANCH  28  29
ENDBRANCH   1  28
TORSDOF 10
ENDMDL
MODEL 10
REMARK VINA RESULT:    -6.953      4.120      8.097
REMARK INTER + INTRA:         -13.456
REMARK INTER:                 -12.819
REMARK INTRA:                  -0.637
REMARK UNBOUND:                -2.439
REMARK SMILES COc1cc(Nc2c(C#N)cnc3cc(OCCCN4CCN(C)CC4)c(OC)cc23)c(Cl)cc1Cl
REMARK SMILES IDX 16 1 15 2 7 3 8 4 31 5 11 6 13 7 30 8 12 9 14 10 27 11 6 12
REMARK SMILES IDX 5 14 3 15 4 16 35 17 34 18 36 19 32 20 33 21 2 22 1 23 9 24
REMARK SMILES IDX 10 25 28 26 29 27 17 28 18 29 19 30 20 31 21 32 26 33 22 34
REMARK SMILES IDX 25 35 23 36 24 37
REMARK H PARENT 6 13
REMARK Flexibility Score: inf
ROOT
ATOM      1  O   UNL     1      16.172  13.404  19.239  1.00  0.00    -0.490 OA
ENDROOT
BRANCH   1   2
ATOM      2  C   UNL     1      15.318  12.408  18.746  1.00  0.00     0.163 A 
ATOM      3  C   UNL     1      12.675   9.441  17.258  1.00  0.00     0.068 A 
ATOM      4  C   UNL     1      12.608   8.213  17.948  1.00  0.00     0.094 A 
ATOM      5  C   UNL     1      13.543  10.454  17.738  1.00  0.00     0.029 A 
ATOM      6  C   UNL     1      13.376   8.024  19.100  1.00  0.00     0.133 A 
ATOM      7  C   UNL     1      14.301  10.203  18.904  1.00  0.00     0.076 A 
ATOM      8  C   UNL     1      13.694  11.693  17.086  1.00  0.00     0.063 A 
ATOM      9  N   UNL     1      14.194   9.010  19.543  1.00  0.00    -0.255 NA
ATOM     10  C   UNL     1      15.183  11.171  19.396  1.00  0.00     0.079 A 
ATOM     11  C   UNL     1      14.560  12.678  17.598  1.00  0.00     0.161 A 
BRANCH   3  12
ATOM     12  N   UNL     1      11.888   9.626  16.066  1.00  0.00    -0.353 N 
ATOM     13  H   UNL     1      11.662   8.770  15.512  1.00  0.00     0.167 HD
BRANCH  12  14
ATOM     14  C   UNL     1      11.274  10.876  15.695  1.00  0.00     0.061 A 
ATOM     15  C   UNL     1      11.040  12.749  14.132  1.00  0.00     0.139 A 
ATOM     16  C   UNL     1      11.659  11.543  14.515  1.00  0.00     0.075 A 
ATOM     17  C   UNL     1      10.039  13.292  14.948  1.00  0.00     0.084 A 
ATOM     18  C   UNL     1       9.663  12.643  16.128  1.00  0.00     0.047 A 
ATOM     19  Cl  UNL     1       9.236  14.792  14.506  1.00  0.00    -0.080 Cl
ATOM     20  C   UNL     1      10.270  11.444  16.505  1.00  0.00     0.066 A 
ATOM     21  Cl  UNL     1       9.719  10.655  17.980  1.00  0.00    -0.082 Cl
BRANCH  15  22
ATOM     22  O   UNL     1      11.387  13.427  12.951  1.00  0.00    -0.495 OA
ATOM     23  C   UNL     1      12.558  13.164  12.183  1.00  0.00     0.278 C 
ENDBRANCH  15  22
ENDBRANCH  12  14
ENDBRANCH   3  12
BRANCH   4  24
ATOM     24  C   UNL     1      11.751   7.148  17.491  1.00  0.00     0.103 C 
ATOM     25  N   UNL     1      11.063   6.294  17.126  1.00  0.00    -0.192 NA
ENDBRANCH   4  24
BRANCH  11  26
ATOM     26  O   UNL     1      14.705  13.933  16.987  1.00  0.00    -0.493 OA
ATOM     27  C   UNL     1      13.779  14.498  16.062  1.00  0.00     0.278 C 
ENDBRANCH  11  26
ENDBRANCH   1   2
BRANCH   1  28
ATOM     28  C   UNL     1      17.523  13.172  19.636  1.00  0.00     0.231 C 
BRANCH  28  29
ATOM     29  C   UNL     1      18.353  12.802  18.408  1.00  0.00     0.057 C 
BRANCH  29  30
ATOM     30  C   UNL     1      19.660  13.610  18.356  1.00  0.00     0.088 C 
BRANCH  30  31
ATOM     31  N   UNL     1      20.690  12.879  17.581  1.00  0.00    -0.301 NA
ATOM     32  C   UNL     1      21.068  11.631  18.274  1.00  0.00     0.100 C 
ATOM     33  C   UNL     1      21.890  13.721  17.374  1.00  0.00     0.100 C 
ATOM     34  C   UNL     1      22.128  10.872  17.468  1.00  0.00     0.099 C 
ATOM     35  C   UNL     1      22.940  12.961  16.560  1.00  0.00     0.099 C 
ATOM     36  N   UNL     1      23.317  11.723  17.266  1.00  0.00    -0.304 NA
ATOM     37  C   UNL     1      24.339  10.996  16.499  1.00  0.00     0.105 C 
ENDBRANCH  30  31
ENDBRANCH  29  30
ENDBRANCH  28  29
ENDBRANCH   1  28
TORSDOF 10
ENDMDL
MODEL 11
REMARK VINA RESULT:    -6.884      2.899      4.636
REMARK INTER + INTRA:         -13.347
REMARK INTER:                 -11.935
REMARK INTRA:                  -1.412
REMARK UNBOUND:                -2.439
REMARK SMILES COc1cc(Nc2c(C#N)cnc3cc(OCCCN4CCN(C)CC4)c(OC)cc23)c(Cl)cc1Cl
REMARK SMILES IDX 16 1 15 2 7 3 8 4 31 5 11 6 13 7 30 8 12 9 14 10 27 11 6 12
REMARK SMILES IDX 5 14 3 15 4 16 35 17 34 18 36 19 32 20 33 21 2 22 1 23 9 24
REMARK SMILES IDX 10 25 28 26 29 27 17 28 18 29 19 30 20 31 21 32 26 33 22 34
REMARK SMILES IDX 25 35 23 36 24 37
REMARK H PARENT 6 13
REMARK Flexibility Score: inf
ROOT
ATOM      1  O   UNL     1      10.812  12.742  13.996  1.00  0.00    -0.490 OA
ENDROOT
BRANCH   1   2
ATOM      2  C   UNL     1      11.493  12.009  14.979  1.00  0.00     0.163 A 
ATOM      3  C   UNL     1      13.615   9.788  17.905  1.00  0.00     0.068 A 
ATOM      4  C   UNL     1      13.033   8.594  18.375  1.00  0.00     0.094 A 
ATOM      5  C   UNL     1      12.933  10.546  16.920  1.00  0.00     0.029 A 
ATOM      6  C   UNL     1      11.811   8.166  17.849  1.00  0.00     0.133 A 
ATOM      7  C   UNL     1      11.696  10.068  16.431  1.00  0.00     0.076 A 
ATOM      8  C   UNL     1      13.430  11.767  16.425  1.00  0.00     0.063 A 
ATOM      9  N   UNL     1      11.179   8.905  16.904  1.00  0.00    -0.255 NA
ATOM     10  C   UNL     1      10.984  10.798  15.475  1.00  0.00     0.079 A 
ATOM     11  C   UNL     1      12.726  12.487  15.441  1.00  0.00     0.161 A 
BRANCH   3  12
ATOM     12  N   UNL     1      14.870  10.228  18.457  1.00  0.00    -0.353 N 
ATOM     13  H   UNL     1      15.737   9.942  17.949  1.00  0.00     0.167 HD
BRANCH  12  14
ATOM     14  C   UNL     1      14.984  11.156  19.555  1.00  0.00     0.061 A 
ATOM     15  C   UNL     1      14.444  11.806  21.855  1.00  0.00     0.139 A 
ATOM     16  C   UNL     1      14.311  10.918  20.769  1.00  0.00     0.075 A 
ATOM     17  C   UNL     1      15.248  12.944  21.711  1.00  0.00     0.084 A 
ATOM     18  C   UNL     1      15.907  13.194  20.504  1.00  0.00     0.047 A 
ATOM     19  Cl  UNL     1      15.447  14.076  23.042  1.00  0.00    -0.080 Cl
ATOM     20  C   UNL     1      15.782  12.312  19.430  1.00  0.00     0.066 A 
ATOM     21  Cl  UNL     1      16.673  12.662  17.952  1.00  0.00    -0.082 Cl
BRANCH  15  22
ATOM     22  O   UNL     1      13.802  11.586  23.085  1.00  0.00    -0.495 OA
ATOM     23  C   UNL     1      13.150  10.372  23.451  1.00  0.00     0.278 C 
ENDBRANCH  15  22
ENDBRANCH  12  14
ENDBRANCH   3  12
BRANCH   4  24
ATOM     24  C   UNL     1      13.682   7.796  19.385  1.00  0.00     0.103 C 
ATOM     25  N   UNL     1      14.203   7.155  20.194  1.00  0.00    -0.192 NA
ENDBRANCH   4  24
BRANCH  11  26
ATOM     26  O   UNL     1      13.214  13.691  14.907  1.00  0.00    -0.493 OA
ATOM     27  C   UNL     1      13.611  14.820  15.681  1.00  0.00     0.278 C 
ENDBRANCH  11  26
ENDBRANCH   1   2
BRANCH   1  28
ATOM     28  C   UNL     1       9.960  13.853  14.278  1.00  0.00     0.231 C 
BRANCH  28  29
ATOM     29  C   UNL     1       9.930  14.785  13.068  1.00  0.00     0.057 C 
BRANCH  29  30
ATOM     30  C   UNL     1      10.157  14.008  11.761  1.00  0.00     0.088 C 
BRANCH  30  31
ATOM     31  N   UNL     1      11.027  14.780  10.844  1.00  0.00    -0.301 NA
ATOM     32  C   UNL     1      10.948  14.233   9.474  1.00  0.00     0.100 C 
ATOM     33  C   UNL     1      12.432  14.762  11.312  1.00  0.00     0.100 C 
ATOM     34  C   UNL     1      11.844  15.038   8.526  1.00  0.00     0.099 C 
ATOM     35  C   UNL     1      13.319  15.575  10.365  1.00  0.00     0.099 C 
ATOM     36  N   UNL     1      13.239  15.013   9.004  1.00  0.00    -0.304 NA
ATOM     37  C   UNL     1      14.103  15.778   8.092  1.00  0.00     0.105 C 
ENDBRANCH  30  31
ENDBRANCH  29  30
ENDBRANCH  28  29
ENDBRANCH   1  28
TORSDOF 10
ENDMDL
MODEL 12
REMARK VINA RESULT:    -6.880      3.325      6.427
REMARK INTER + INTRA:         -13.341
REMARK INTER:                 -10.684
REMARK INTRA:                  -2.657
REMARK UNBOUND:                -2.439
REMARK SMILES COc1cc(Nc2c(C#N)cnc3cc(OCCCN4CCN(C)CC4)c(OC)cc23)c(Cl)cc1Cl
REMARK SMILES IDX 16 1 15 2 7 3 8 4 31 5 11 6 13 7 30 8 12 9 14 10 27 11 6 12
REMARK SMILES IDX 5 14 3 15 4 16 35 17 34 18 36 19 32 20 33 21 2 22 1 23 9 24
REMARK SMILES IDX 10 25 28 26 29 27 17 28 18 29 19 30 20 31 21 32 26 33 22 34
REMARK SMILES IDX 25 35 23 36 24 37
REMARK H PARENT 6 13
REMARK Flexibility Score: inf
ROOT
ATOM      1  O   UNL     1      10.984   7.862  17.717  1.00  0.00    -0.490 OA
ENDROOT
BRANCH   1   2
ATOM      2  C   UNL     1      10.845   9.136  17.148  1.00  0.00     0.163 A 
ATOM      3  C   UNL     1      10.349  12.974  15.409  1.00  0.00     0.068 A 
ATOM      4  C   UNL     1      11.261  13.365  14.408  1.00  0.00     0.094 A 
ATOM      5  C   UNL     1      10.485  11.692  16.001  1.00  0.00     0.029 A 
ATOM      6  C   UNL     1      12.264  12.482  14.001  1.00  0.00     0.133 A 
ATOM      7  C   UNL     1      11.524  10.845  15.555  1.00  0.00     0.076 A 
ATOM      8  C   UNL     1       9.637  11.241  17.031  1.00  0.00     0.063 A 
ATOM      9  N   UNL     1      12.371  11.259  14.579  1.00  0.00    -0.255 NA
ATOM     10  C   UNL     1      11.702   9.582  16.130  1.00  0.00     0.079 A 
ATOM     11  C   UNL     1       9.799   9.958  17.589  1.00  0.00     0.161 A 
BRANCH   3  12
ATOM     12  N   UNL     1       9.323  13.893  15.829  1.00  0.00    -0.353 N 
ATOM     13  H   UNL     1       8.454  13.928  15.250  1.00  0.00     0.167 HD
BRANCH  12  14
ATOM     14  C   UNL     1       9.363  14.629  17.068  1.00  0.00     0.061 A 
ATOM     15  C   UNL     1      10.593  15.419  19.035  1.00  0.00     0.139 A 
ATOM     16  C   UNL     1      10.540  14.675  17.839  1.00  0.00     0.075 A 
ATOM     17  C   UNL     1       9.450  16.107  19.461  1.00  0.00     0.084 A 
ATOM     18  C   UNL     1       8.273  16.054  18.708  1.00  0.00     0.047 A 
ATOM     19  Cl  UNL     1       9.472  17.052  20.943  1.00  0.00    -0.080 Cl
ATOM     20  C   UNL     1       8.222  15.323  17.520  1.00  0.00     0.066 A 
ATOM     21  Cl  UNL     1       6.722  15.334  16.596  1.00  0.00    -0.082 Cl
BRANCH  15  22
ATOM     22  O   UNL     1      11.758  15.500  19.815  1.00  0.00    -0.495 OA
ATOM     23  C   UNL     1      12.816  16.429  19.593  1.00  0.00     0.278 C 
ENDBRANCH  15  22
ENDBRANCH  12  14
ENDBRANCH   3  12
BRANCH   4  24
ATOM     24  C   UNL     1      11.172  14.662  13.785  1.00  0.00     0.103 C 
ATOM     25  N   UNL     1      11.099  15.703  13.285  1.00  0.00    -0.192 NA
ENDBRANCH   4  24
BRANCH  11  26
ATOM     26  O   UNL     1       8.949   9.471  18.594  1.00  0.00    -0.493 OA
ATOM     27  C   UNL     1       7.770  10.129  19.051  1.00  0.00     0.278 C 
ENDBRANCH  11  26
ENDBRANCH   1   2
BRANCH   1  28
ATOM     28  C   UNL     1      12.172   7.403  18.363  1.00  0.00     0.231 C 
BRANCH  28  29
ATOM     29  C   UNL     1      12.495   8.325  19.538  1.00  0.00     0.057 C 
BRANCH  29  30
ATOM     30  C   UNL     1      13.999   8.630  19.608  1.00  0.00     0.088 C 
BRANCH  30  31
ATOM     31  N   UNL     1      14.260  10.040  19.234  1.00  0.00    -0.301 NA
ATOM     32  C   UNL     1      13.037  10.852  19.401  1.00  0.00     0.100 C 
ATOM     33  C   UNL     1      14.737  10.134  17.836  1.00  0.00     0.100 C 
ATOM     34  C   UNL     1      13.310  12.312  19.020  1.00  0.00     0.099 C 
ATOM     35  C   UNL     1      15.017  11.593  17.466  1.00  0.00     0.099 C 
ATOM     36  N   UNL     1      13.787  12.391  17.627  1.00  0.00    -0.304 NA
ATOM     37  C   UNL     1      14.043  13.791  17.255  1.00  0.00     0.105 C 
ENDBRANCH  30  31
ENDBRANCH  29  30
ENDBRANCH  28  29
ENDBRANCH   1  28
TORSDOF 10
ENDMDL
MODEL 13
REMARK VINA RESULT:    -6.869      1.652      2.454
REMARK INTER + INTRA:         -13.323
REMARK INTER:                 -11.461
REMARK INTRA:                  -1.862
REMARK UNBOUND:                -2.439
REMARK SMILES COc1cc(Nc2c(C#N)cnc3cc(OCCCN4CCN(C)CC4)c(OC)cc23)c(Cl)cc1Cl
REMARK SMILES IDX 16 1 15 2 7 3 8 4 31 5 11 6 13 7 30 8 12 9 14 10 27 11 6 12
REMARK SMILES IDX 5 14 3 15 4 16 35 17 34 18 36 19 32 20 33 21 2 22 1 23 9 24
REMARK SMILES IDX 10 25 28 26 29 27 17 28 18 29 19 30 20 31 21 32 26 33 22 34
REMARK SMILES IDX 25 35 23 36 24 37
REMARK H PARENT 6 13
REMARK Flexibility Score: inf
ROOT
ATOM      1  O   UNL     1      10.758  12.654  13.847  1.00  0.00    -0.490 OA
ENDROOT
BRANCH   1   2
ATOM      2  C   UNL     1      11.468  11.925  14.811  1.00  0.00     0.163 A 
ATOM      3  C   UNL     1      13.675   9.713  17.681  1.00  0.00     0.068 A 
ATOM      4  C   UNL     1      13.086   8.546  18.207  1.00  0.00     0.094 A 
ATOM      5  C   UNL     1      12.964  10.467  16.713  1.00  0.00     0.029 A 
ATOM      6  C   UNL     1      11.828   8.140  17.753  1.00  0.00     0.133 A 
ATOM      7  C   UNL     1      11.692  10.011  16.298  1.00  0.00     0.076 A 
ATOM      8  C   UNL     1      13.468  11.663  16.166  1.00  0.00     0.063 A 
ATOM      9  N   UNL     1      11.170   8.874  16.822  1.00  0.00    -0.255 NA
ATOM     10  C   UNL     1      10.953  10.740  15.360  1.00  0.00     0.079 A 
ATOM     11  C   UNL     1      12.735  12.379  15.200  1.00  0.00     0.161 A 
BRANCH   3  12
ATOM     12  N   UNL     1      14.967  10.130  18.160  1.00  0.00    -0.353 N 
ATOM     13  H   UNL     1      15.780   9.521  17.918  1.00  0.00     0.167 HD
BRANCH  12  14
ATOM     14  C   UNL     1      15.216  11.398  18.800  1.00  0.00     0.061 A 
ATOM     15  C   UNL     1      16.280  13.605  18.807  1.00  0.00     0.139 A 
ATOM     16  C   UNL     1      16.060  12.353  18.200  1.00  0.00     0.075 A 
ATOM     17  C   UNL     1      15.660  13.890  20.029  1.00  0.00     0.084 A 
ATOM     18  C   UNL     1      14.833  12.941  20.638  1.00  0.00     0.047 A 
ATOM     19  Cl  UNL     1      15.903  15.441  20.819  1.00  0.00    -0.080 Cl
ATOM     20  C   UNL     1      14.607  11.703  20.034  1.00  0.00     0.066 A 
ATOM     21  Cl  UNL     1      13.519  10.570  20.832  1.00  0.00    -0.082 Cl
BRANCH  15  22
ATOM     22  O   UNL     1      17.100  14.585  18.223  1.00  0.00    -0.495 OA
ATOM     23  C   UNL     1      17.034  14.985  16.856  1.00  0.00     0.278 C 
ENDBRANCH  15  22
ENDBRANCH  12  14
ENDBRANCH   3  12
BRANCH   4  24
ATOM     24  C   UNL     1      13.763   7.753  19.202  1.00  0.00     0.103 C 
ATOM     25  N   UNL     1      14.306   7.116  20.000  1.00  0.00    -0.192 NA
ENDBRANCH   4  24
BRANCH  11  26
ATOM     26  O   UNL     1      13.227  13.556  14.615  1.00  0.00    -0.493 OA
ATOM     27  C   UNL     1      13.575  14.737  15.334  1.00  0.00     0.278 C 
ENDBRANCH  11  26
ENDBRANCH   1   2
BRANCH   1  28
ATOM     28  C   UNL     1      10.177  13.936  14.085  1.00  0.00     0.231 C 
BRANCH  28  29
ATOM     29  C   UNL     1       9.156  13.825  15.215  1.00  0.00     0.057 C 
BRANCH  29  30
ATOM     30  C   UNL     1       9.659  14.521  16.490  1.00  0.00     0.088 C 
BRANCH  30  31
ATOM     31  N   UNL     1       9.509  13.627  17.662  1.00  0.00    -0.301 NA
ATOM     32  C   UNL     1      10.832  13.188  18.149  1.00  0.00     0.100 C 
ATOM     33  C   UNL     1       8.683  12.447  17.320  1.00  0.00     0.100 C 
ATOM     34  C   UNL     1      10.675  12.269  19.366  1.00  0.00     0.099 C 
ATOM     35  C   UNL     1       8.522  11.538  18.542  1.00  0.00     0.099 C 
ATOM     36  N   UNL     1       9.848  11.099  19.013  1.00  0.00    -0.304 NA
ATOM     37  C   UNL     1       9.701  10.211  20.176  1.00  0.00     0.105 C 
ENDBRANCH  30  31
ENDBRANCH  29  30
ENDBRANCH  28  29
ENDBRANCH   1  28
TORSDOF 10
ENDMDL
MODEL 14
REMARK VINA RESULT:    -6.743      4.350      6.827
REMARK INTER + INTRA:         -13.124
REMARK INTER:                 -11.707
REMARK INTRA:                  -1.417
REMARK UNBOUND:                -2.439
REMARK SMILES COc1cc(Nc2c(C#N)cnc3cc(OCCCN4CCN(C)CC4)c(OC)cc23)c(Cl)cc1Cl
REMARK SMILES IDX 16 1 15 2 7 3 8 4 31 5 11 6 13 7 30 8 12 9 14 10 27 11 6 12
REMARK SMILES IDX 5 14 3 15 4 16 35 17 34 18 36 19 32 20 33 21 2 22 1 23 9 24
REMARK SMILES IDX 10 25 28 26 29 27 17 28 18 29 19 30 20 31 21 32 26 33 22 34
REMARK SMILES IDX 25 35 23 36 24 37
REMARK H PARENT 6 13
REMARK Flexibility Score: inf
ROOT
ATOM      1  O   UNL     1      10.214  14.907  11.180  1.00  0.00    -0.490 OA
ENDROOT
BRANCH   1   2
ATOM      2  C   UNL     1      10.205  14.304  12.446  1.00  0.00     0.163 A 
ATOM      3  C   UNL     1      10.168  12.412  16.244  1.00  0.00     0.068 A 
ATOM      4  C   UNL     1       9.250  12.883  17.204  1.00  0.00     0.094 A 
ATOM      5  C   UNL     1      10.196  13.020  14.963  1.00  0.00     0.029 A 
ATOM      6  C   UNL     1       8.372  13.918  16.873  1.00  0.00     0.133 A 
ATOM      7  C   UNL     1       9.289  14.068  14.688  1.00  0.00     0.076 A 
ATOM      8  C   UNL     1      11.107  12.632  13.961  1.00  0.00     0.063 A 
ATOM      9  N   UNL     1       8.413  14.479  15.640  1.00  0.00    -0.255 NA
ATOM     10  C   UNL     1       9.302  14.705  13.443  1.00  0.00     0.079 A 
ATOM     11  C   UNL     1      11.099  13.254  12.698  1.00  0.00     0.161 A 
BRANCH   3  12
ATOM     12  N   UNL     1      11.076  11.351  16.594  1.00  0.00    -0.353 N 
ATOM     13  H   UNL     1      10.768  10.376  16.384  1.00  0.00     0.167 HD
BRANCH  12  14
ATOM     14  C   UNL     1      12.424  11.568  17.058  1.00  0.00     0.061 A 
ATOM     15  C   UNL     1      14.050  12.891  18.328  1.00  0.00     0.139 A 
ATOM     16  C   UNL     1      12.741  12.692  17.846  1.00  0.00     0.075 A 
ATOM     17  C   UNL     1      15.045  11.961  18.003  1.00  0.00     0.084 A 
ATOM     18  C   UNL     1      14.742  10.851  17.209  1.00  0.00     0.047 A 
ATOM     19  Cl  UNL     1      16.691  12.167  18.587  1.00  0.00    -0.080 Cl
ATOM     20  C   UNL     1      13.444  10.648  16.737  1.00  0.00     0.066 A 
ATOM     21  Cl  UNL     1      13.118   9.207  15.779  1.00  0.00    -0.082 Cl
BRANCH  15  22
ATOM     22  O   UNL     1      14.392  13.990  19.132  1.00  0.00    -0.495 OA
ATOM     23  C   UNL     1      13.922  15.320  18.926  1.00  0.00     0.278 C 
ENDBRANCH  15  22
ENDBRANCH  12  14
ENDBRANCH   3  12
BRANCH   4  24
ATOM     24  C   UNL     1       9.192  12.306  18.524  1.00  0.00     0.103 C 
ATOM     25  N   UNL     1       9.146  11.843  19.583  1.00  0.00    -0.192 NA
ENDBRANCH   4  24
BRANCH  11  26
ATOM     26  O   UNL     1      11.974  12.866  11.671  1.00  0.00    -0.493 OA
ATOM     27  C   UNL     1      13.352  13.224  11.600  1.00  0.00     0.278 C 
ENDBRANCH  11  26
ENDBRANCH   1   2
BRANCH   1  28
ATOM     28  C   UNL     1       9.357  14.520  10.107  1.00  0.00     0.231 C 
BRANCH  28  29
ATOM     29  C   UNL     1       8.862  15.769   9.380  1.00  0.00     0.057 C 
BRANCH  29  30
ATOM     30  C   UNL     1       8.059  16.680  10.323  1.00  0.00     0.088 C 
BRANCH  30  31
ATOM     31  N   UNL     1       6.710  16.937   9.768  1.00  0.00    -0.301 NA
ATOM     32  C   UNL     1       5.704  16.963  10.849  1.00  0.00     0.100 C 
ATOM     33  C   UNL     1       6.346  15.906   8.769  1.00  0.00     0.100 C 
ATOM     34  C   UNL     1       4.309  17.236  10.275  1.00  0.00     0.099 C 
ATOM     35  C   UNL     1       4.956  16.190   8.193  1.00  0.00     0.099 C 
ATOM     36  N   UNL     1       3.960  16.204   9.280  1.00  0.00    -0.304 NA
ATOM     37  C   UNL     1       2.619  16.459   8.732  1.00  0.00     0.105 C 
ENDBRANCH  30  31
ENDBRANCH  29  30
ENDBRANCH  28  29
ENDBRANCH   1  28
TORSDOF 10
ENDMDL
MODEL 15
REMARK VINA RESULT:    -6.743      3.951      7.545
REMARK INTER + INTRA:         -13.124
REMARK INTER:                 -12.143
REMARK INTRA:                  -0.981
REMARK UNBOUND:                -2.439
REMARK SMILES COc1cc(Nc2c(C#N)cnc3cc(OCCCN4CCN(C)CC4)c(OC)cc23)c(Cl)cc1Cl
REMARK SMILES IDX 16 1 15 2 7 3 8 4 31 5 11 6 13 7 30 8 12 9 14 10 27 11 6 12
REMARK SMILES IDX 5 14 3 15 4 16 35 17 34 18 36 19 32 20 33 21 2 22 1 23 9 24
REMARK SMILES IDX 10 25 28 26 29 27 17 28 18 29 19 30 20 31 21 32 26 33 22 34
REMARK SMILES IDX 25 35 23 36 24 37
REMARK H PARENT 6 13
REMARK Flexibility Score: inf
ROOT
ATOM      1  O   UNL     1      16.096  13.401  19.368  1.00  0.00    -0.490 OA
ENDROOT
BRANCH   1   2
ATOM      2  C   UNL     1      15.205  12.428  18.895  1.00  0.00     0.163 A 
ATOM      3  C   UNL     1      12.451   9.526  17.481  1.00  0.00     0.068 A 
ATOM      4  C   UNL     1      12.530   8.227  18.020  1.00  0.00     0.094 A 
ATOM      5  C   UNL     1      13.353  10.519  17.942  1.00  0.00     0.029 A 
ATOM      6  C   UNL     1      13.473   7.944  19.011  1.00  0.00     0.133 A 
ATOM      7  C   UNL     1      14.291  10.173  18.940  1.00  0.00     0.076 A 
ATOM      8  C   UNL     1      13.362  11.830  17.428  1.00  0.00     0.063 A 
ATOM      9  N   UNL     1      14.322   8.911  19.440  1.00  0.00    -0.255 NA
ATOM     10  C   UNL     1      15.210  11.119  19.405  1.00  0.00     0.079 A 
ATOM     11  C   UNL     1      14.269  12.790  17.918  1.00  0.00     0.161 A 
BRANCH   3  12
ATOM     12  N   UNL     1      11.482   9.808  16.454  1.00  0.00    -0.353 N 
ATOM     13  H   UNL     1      11.322   9.065  15.738  1.00  0.00     0.167 HD
BRANCH  12  14
ATOM     14  C   UNL     1      10.623  10.967  16.455  1.00  0.00     0.061 A 
ATOM     15  C   UNL     1       9.943  13.111  15.483  1.00  0.00     0.139 A 
ATOM     16  C   UNL     1      10.799  11.992  15.506  1.00  0.00     0.075 A 
ATOM     17  C   UNL     1       8.916  13.203  16.431  1.00  0.00     0.084 A 
ATOM     18  C   UNL     1       8.744  12.196  17.385  1.00  0.00     0.047 A 
ATOM     19  Cl  UNL     1       7.821  14.578  16.436  1.00  0.00    -0.080 Cl
ATOM     20  C   UNL     1       9.587  11.083  17.404  1.00  0.00     0.066 A 
ATOM     21  Cl  UNL     1       9.290   9.830  18.605  1.00  0.00    -0.082 Cl
BRANCH  15  22
ATOM     22  O   UNL     1      10.080  14.140  14.536  1.00  0.00    -0.495 OA
ATOM     23  C   UNL     1      10.275  13.932  13.140  1.00  0.00     0.278 C 
ENDBRANCH  15  22
ENDBRANCH  12  14
ENDBRANCH   3  12
BRANCH   4  24
ATOM     24  C   UNL     1      11.643   7.181  17.575  1.00  0.00     0.103 C 
ATOM     25  N   UNL     1      10.933   6.341  17.218  1.00  0.00    -0.192 NA
ENDBRANCH   4  24
BRANCH  11  26
ATOM     26  O   UNL     1      14.279  14.112  17.446  1.00  0.00    -0.493 OA
ATOM     27  C   UNL     1      13.895  14.509  16.132  1.00  0.00     0.278 C 
ENDBRANCH  11  26
ENDBRANCH   1   2
BRANCH   1  28
ATOM     28  C   UNL     1      17.504  13.373  19.138  1.00  0.00     0.231 C 
BRANCH  28  29
ATOM     29  C   UNL     1      17.775  13.548  17.645  1.00  0.00     0.057 C 
BRANCH  29  30
ATOM     30  C   UNL     1      17.859  15.035  17.265  1.00  0.00     0.088 C 
BRANCH  30  31
ATOM     31  N   UNL     1      18.420  15.190  15.903  1.00  0.00    -0.301 NA
ATOM     32  C   UNL     1      19.657  15.996  15.943  1.00  0.00     0.100 C 
ATOM     33  C   UNL     1      17.436  15.825  14.997  1.00  0.00     0.100 C 
ATOM     34  C   UNL     1      20.240  16.150  14.534  1.00  0.00     0.099 C 
ATOM     35  C   UNL     1      18.021  15.966  13.589  1.00  0.00     0.099 C 
ATOM     36  N   UNL     1      19.249  16.781  13.641  1.00  0.00    -0.304 NA
ATOM     37  C   UNL     1      19.808  16.936  12.289  1.00  0.00     0.105 C 
ENDBRANCH  30  31
ENDBRANCH  29  30
ENDBRANCH  28  29
ENDBRANCH   1  28
TORSDOF 10
ENDMDL
