MODEL 1
REMARK VINA RESULT:    -9.174      0.000      0.000
REMARK INTER + INTRA:         -12.603
REMARK INTER:                 -12.124
REMARK INTRA:                  -0.479
REMARK UNBOUND:                -0.479
REMARK SMILES Cc1ccc(Nc2nccc(N(C)c3ccc4c(C)n(C)nc4c3)n2)cc1S(N)(=O)=O
REMARK SMILES IDX 6 1 7 3 11 4 10 5 25 6 9 7 8 8 12 9 13 10 14 11 24 12 15 13
REMARK SMILES IDX 23 14 16 15 22 16 17 17 20 18 18 19 21 20 19 21 5 22 4 23
REMARK SMILES IDX 26 24 3 25 27 26 2 27 1 28 28 29 30 30 31 31 29 32
REMARK H PARENT 6 2 29 33 29 34
REMARK Flexibility Score: inf
ROOT
ATOM      1  N   UNL     1      15.045  10.623  17.543  1.00  0.00    -0.324 N 
ATOM      2  H   UNL     1      16.028  10.566  17.194  1.00  0.00     0.170 HD
ENDROOT
BRANCH   1   3
ATOM      3  C   UNL     1      13.991  10.360  16.606  1.00  0.00     0.229 A 
ATOM      4  C   UNL     1      12.251  11.198  15.220  1.00  0.00     0.138 A 
ATOM      5  C   UNL     1      11.916   9.884  14.859  1.00  0.00     0.067 A 
ATOM      6  N   UNL     1      13.274  11.397  16.097  1.00  0.00    -0.195 NA
ATOM      7  C   UNL     1      12.652   8.830  15.398  1.00  0.00     0.119 A 
ATOM      8  N   UNL     1      13.669   9.086  16.259  1.00  0.00    -0.221 NA
BRANCH   4   9
ATOM      9  N   UNL     1      11.518  12.330  14.701  1.00  0.00    -0.329 N 
ATOM     10  C   UNL     1      10.341  12.816  15.429  1.00  0.00     0.152 C 
BRANCH   9  11
ATOM     11  C   UNL     1      11.873  12.934  13.440  1.00  0.00     0.044 A 
ATOM     12  C   UNL     1      10.912  13.033  12.407  1.00  0.00     0.057 A 
ATOM     13  C   UNL     1      13.190  13.419  13.221  1.00  0.00     0.027 A 
ATOM     14  C   UNL     1      11.297  13.619  11.207  1.00  0.00     0.095 A 
ATOM     15  C   UNL     1      13.549  14.000  11.991  1.00  0.00     0.014 A 
ATOM     16  N   UNL     1      10.548  13.795  10.103  1.00  0.00    -0.173 NA
ATOM     17  C   UNL     1      12.568  14.087  11.006  1.00  0.00     0.023 A 
ATOM     18  N   UNL     1      11.336  14.373   9.201  1.00  0.00    -0.272 N 
ATOM     19  C   UNL     1      12.573  14.576   9.716  1.00  0.00     0.043 A 
ATOM     20  C   UNL     1      10.891  14.722   7.856  1.00  0.00     0.174 C 
ATOM     21  C   UNL     1      13.741  15.143   8.966  1.00  0.00     0.067 C 
ENDBRANCH   9  11
ENDBRANCH   4   9
ENDBRANCH   1   3
BRANCH   1  22
ATOM     22  C   UNL     1      14.829  11.052  18.898  1.00  0.00     0.042 A 
ATOM     23  C   UNL     1      15.212  12.329  19.329  1.00  0.00     0.026 A 
ATOM     24  C   UNL     1      14.162  10.202  19.789  1.00  0.00     0.048 A 
ATOM     25  C   UNL     1      14.970  12.733  20.642  1.00  0.00     0.007 A 
ATOM     26  C   UNL     1      13.910  10.594  21.114  1.00  0.00     0.087 A 
ATOM     27  C   UNL     1      14.342  11.870  21.554  1.00  0.00    -0.031 A 
ATOM     28  C   UNL     1      14.098  12.356  22.958  1.00  0.00     0.046 C 
BRANCH  26  29
ATOM     29  S   UNL     1      13.079   9.453  22.190  1.00  0.00     0.238 S 
ATOM     30  O   UNL     1      11.613   9.781  22.246  1.00  0.00    -0.207 OA
ATOM     31  O   UNL     1      13.635   9.556  23.582  1.00  0.00    -0.207 OA
BRANCH  29  32
ATOM     32  N   UNL     1      13.261   7.836  21.600  1.00  0.00    -0.225 NA
ATOM     33  H   UNL     1      12.481   7.269  22.002  1.00  0.00     0.137 HD
ATOM     34  H   UNL     1      13.120   7.857  20.565  1.00  0.00     0.137 HD
ENDBRANCH  29  32
ENDBRANCH  26  29
ENDBRANCH   1  22
TORSDOF 6
ENDMDL
MODEL 2
REMARK VINA RESULT:    -9.003      0.777      1.394
REMARK INTER + INTRA:         -12.376
REMARK INTER:                 -11.851
REMARK INTRA:                  -0.525
REMARK UNBOUND:                -0.479
REMARK SMILES Cc1ccc(Nc2nccc(N(C)c3ccc4c(C)n(C)nc4c3)n2)cc1S(N)(=O)=O
REMARK SMILES IDX 6 1 7 3 11 4 10 5 25 6 9 7 8 8 12 9 13 10 14 11 24 12 15 13
REMARK SMILES IDX 23 14 16 15 22 16 17 17 20 18 18 19 21 20 19 21 5 22 4 23
REMARK SMILES IDX 26 24 3 25 27 26 2 27 1 28 28 29 30 30 31 31 29 32
REMARK H PARENT 6 2 29 33 29 34
REMARK Flexibility Score: inf
ROOT
ATOM      1  N   UNL     1      15.107  10.841  17.621  1.00  0.00    -0.324 N 
ATOM      2  H   UNL     1      16.098  10.811  17.293  1.00  0.00     0.170 HD
ENDROOT
BRANCH   1   3
ATOM      3  C   UNL     1      14.079  10.596  16.651  1.00  0.00     0.229 A 
ATOM      4  C   UNL     1      12.278  11.434  15.344  1.00  0.00     0.138 A 
ATOM      5  C   UNL     1      12.052  10.143  14.841  1.00  0.00     0.067 A 
ATOM      6  N   UNL     1      13.280  11.619  16.248  1.00  0.00    -0.195 NA
ATOM      7  C   UNL     1      12.871   9.101  15.272  1.00  0.00     0.119 A 
ATOM      8  N   UNL     1      13.862   9.344  16.166  1.00  0.00    -0.221 NA
BRANCH   4   9
ATOM      9  N   UNL     1      11.456  12.552  14.942  1.00  0.00    -0.329 N 
ATOM     10  C   UNL     1      10.530  13.146  15.912  1.00  0.00     0.152 C 
BRANCH   9  11
ATOM     11  C   UNL     1      11.470  13.037  13.583  1.00  0.00     0.044 A 
ATOM     12  C   UNL     1      12.693  13.141  12.880  1.00  0.00     0.057 A 
ATOM     13  C   UNL     1      10.261  13.428  12.947  1.00  0.00     0.027 A 
ATOM     14  C   UNL     1      12.661  13.616  11.575  1.00  0.00     0.095 A 
ATOM     15  C   UNL     1      10.265  13.913  11.626  1.00  0.00     0.014 A 
ATOM     16  N   UNL     1      13.704  13.804  10.745  1.00  0.00    -0.173 NA
ATOM     17  C   UNL     1      11.491  13.988  10.969  1.00  0.00     0.023 A 
ATOM     18  N   UNL     1      13.203  14.293   9.614  1.00  0.00    -0.272 N 
ATOM     19  C   UNL     1      11.855  14.410   9.708  1.00  0.00     0.043 A 
ATOM     20  C   UNL     1      14.023  14.640   8.459  1.00  0.00     0.174 C 
ATOM     21  C   UNL     1      10.961  14.989   8.651  1.00  0.00     0.067 C 
ENDBRANCH   9  11
ENDBRANCH   4   9
ENDBRANCH   1   3
BRANCH   1  22
ATOM     22  C   UNL     1      14.852  11.217  18.985  1.00  0.00     0.042 A 
ATOM     23  C   UNL     1      15.200  12.486  19.468  1.00  0.00     0.026 A 
ATOM     24  C   UNL     1      14.182  10.325  19.830  1.00  0.00     0.048 A 
ATOM     25  C   UNL     1      14.922  12.839  20.788  1.00  0.00     0.007 A 
ATOM     26  C   UNL     1      13.893  10.665  21.162  1.00  0.00     0.087 A 
ATOM     27  C   UNL     1      14.291  11.932  21.656  1.00  0.00    -0.031 A 
ATOM     28  C   UNL     1      14.006  12.364  23.070  1.00  0.00     0.046 C 
BRANCH  26  29
ATOM     29  S   UNL     1      13.062   9.471  22.179  1.00  0.00     0.238 S 
ATOM     30  O   UNL     1      11.589   9.769  22.213  1.00  0.00    -0.207 OA
ATOM     31  O   UNL     1      13.585   9.536  23.586  1.00  0.00    -0.207 OA
BRANCH  29  32
ATOM     32  N   UNL     1      13.289   7.880  21.538  1.00  0.00    -0.225 NA
ATOM     33  H   UNL     1      13.427   7.976  20.507  1.00  0.00     0.137 HD
ATOM     34  H   UNL     1      14.180   7.503  21.930  1.00  0.00     0.137 HD
ENDBRANCH  29  32
ENDBRANCH  26  29
ENDBRANCH   1  22
TORSDOF 6
ENDMDL
MODEL 3
REMARK VINA RESULT:    -8.870      4.750      7.999
REMARK INTER + INTRA:         -12.201
REMARK INTER:                 -11.155
REMARK INTRA:                  -1.046
REMARK UNBOUND:                -0.479
REMARK SMILES Cc1ccc(Nc2nccc(N(C)c3ccc4c(C)n(C)nc4c3)n2)cc1S(N)(=O)=O
REMARK SMILES IDX 6 1 7 3 11 4 10 5 25 6 9 7 8 8 12 9 13 10 14 11 24 12 15 13
REMARK SMILES IDX 23 14 16 15 22 16 17 17 20 18 18 19 21 20 19 21 5 22 4 23
REMARK SMILES IDX 26 24 3 25 27 26 2 27 1 28 28 29 30 30 31 31 29 32
REMARK H PARENT 6 2 29 33 29 34
REMARK Flexibility Score: inf
ROOT
ATOM      1  N   UNL     1       9.218   9.861  18.073  1.00  0.00    -0.324 N 
ATOM      2  H   UNL     1       8.315   9.456  18.406  1.00  0.00     0.170 HD
ENDROOT
BRANCH   1   3
ATOM      3  C   UNL     1      10.394   9.049  18.189  1.00  0.00     0.229 A 
ATOM      4  C   UNL     1      12.580   8.755  19.077  1.00  0.00     0.138 A 
ATOM      5  C   UNL     1      12.694   7.544  18.376  1.00  0.00     0.067 A 
ATOM      6  N   UNL     1      11.434   9.480  18.950  1.00  0.00    -0.195 NA
ATOM      7  C   UNL     1      11.624   7.119  17.590  1.00  0.00     0.119 A 
ATOM      8  N   UNL     1      10.502   7.876  17.508  1.00  0.00    -0.221 NA
BRANCH   4   9
ATOM      9  N   UNL     1      13.658   9.250  19.900  1.00  0.00    -0.329 N 
ATOM     10  C   UNL     1      13.924   8.613  21.194  1.00  0.00     0.152 C 
BRANCH   9  11
ATOM     11  C   UNL     1      14.422  10.411  19.511  1.00  0.00     0.044 A 
ATOM     12  C   UNL     1      14.755  11.395  20.471  1.00  0.00     0.057 A 
ATOM     13  C   UNL     1      14.830  10.583  18.161  1.00  0.00     0.027 A 
ATOM     14  C   UNL     1      15.489  12.499  20.052  1.00  0.00     0.095 A 
ATOM     15  C   UNL     1      15.566  11.717  17.768  1.00  0.00     0.014 A 
ATOM     16  N   UNL     1      15.892  13.545  20.796  1.00  0.00    -0.173 NA
ATOM     17  C   UNL     1      15.881  12.654  18.750  1.00  0.00     0.023 A 
ATOM     18  N   UNL     1      16.539  14.365  19.973  1.00  0.00    -0.272 N 
ATOM     19  C   UNL     1      16.562  13.852  18.718  1.00  0.00     0.043 A 
ATOM     20  C   UNL     1      17.127  15.630  20.402  1.00  0.00     0.174 C 
ATOM     21  C   UNL     1      17.146  14.533  17.516  1.00  0.00     0.067 C 
ENDBRANCH   9  11
ENDBRANCH   4   9
ENDBRANCH   1   3
BRANCH   1  22
ATOM     22  C   UNL     1       9.225  11.225  17.617  1.00  0.00     0.042 A 
ATOM     23  C   UNL     1       8.637  12.249  18.373  1.00  0.00     0.026 A 
ATOM     24  C   UNL     1       9.889  11.550  16.429  1.00  0.00     0.048 A 
ATOM     25  C   UNL     1       8.676  13.569  17.925  1.00  0.00     0.007 A 
ATOM     26  C   UNL     1       9.939  12.874  15.964  1.00  0.00     0.087 A 
ATOM     27  C   UNL     1       9.302  13.896  16.711  1.00  0.00    -0.031 A 
ATOM     28  C   UNL     1       9.323  15.337  16.274  1.00  0.00     0.046 C 
BRANCH  26  29
ATOM     29  S   UNL     1      10.780  13.203  14.436  1.00  0.00     0.238 S 
ATOM     30  O   UNL     1      12.002  14.039  14.698  1.00  0.00    -0.207 OA
ATOM     31  O   UNL     1       9.882  13.967  13.504  1.00  0.00    -0.207 OA
BRANCH  29  32
ATOM     32  N   UNL     1      11.275  11.720  13.696  1.00  0.00    -0.225 NA
ATOM     33  H   UNL     1      11.928  11.962  12.918  1.00  0.00     0.137 HD
ATOM     34  H   UNL     1      11.827  11.181  14.400  1.00  0.00     0.137 HD
ENDBRANCH  29  32
ENDBRANCH  26  29
ENDBRANCH   1  22
TORSDOF 6
ENDMDL
MODEL 4
REMARK VINA RESULT:    -8.837      1.637      2.148
REMARK INTER + INTRA:         -12.157
REMARK INTER:                 -11.438
REMARK INTRA:                  -0.720
REMARK UNBOUND:                -0.479
REMARK SMILES Cc1ccc(Nc2nccc(N(C)c3ccc4c(C)n(C)nc4c3)n2)cc1S(N)(=O)=O
REMARK SMILES IDX 6 1 7 3 11 4 10 5 25 6 9 7 8 8 12 9 13 10 14 11 24 12 15 13
REMARK SMILES IDX 23 14 16 15 22 16 17 17 20 18 18 19 21 20 19 21 5 22 4 23
REMARK SMILES IDX 26 24 3 25 27 26 2 27 1 28 28 29 30 30 31 31 29 32
REMARK H PARENT 6 2 29 33 29 34
REMARK Flexibility Score: inf
ROOT
ATOM      1  N   UNL     1      15.140  10.083  17.827  1.00  0.00    -0.324 N 
ATOM      2  H   UNL     1      15.749   9.236  17.880  1.00  0.00     0.170 HD
ENDROOT
BRANCH   1   3
ATOM      3  C   UNL     1      14.134  10.116  16.806  1.00  0.00     0.229 A 
ATOM      4  C   UNL     1      12.611  11.387  15.496  1.00  0.00     0.138 A 
ATOM      5  C   UNL     1      12.150  10.204  14.897  1.00  0.00     0.067 A 
ATOM      6  N   UNL     1      13.583  11.305  16.446  1.00  0.00    -0.195 NA
ATOM      7  C   UNL     1      12.716   8.990  15.284  1.00  0.00     0.119 A 
ATOM      8  N   UNL     1      13.689   8.968  16.228  1.00  0.00    -0.221 NA
BRANCH   4   9
ATOM      9  N   UNL     1      12.056  12.673  15.142  1.00  0.00    -0.329 N 
ATOM     10  C   UNL     1      11.554  13.553  16.202  1.00  0.00     0.152 C 
BRANCH   9  11
ATOM     11  C   UNL     1      11.911  13.069  13.762  1.00  0.00     0.044 A 
ATOM     12  C   UNL     1      13.054  13.393  12.995  1.00  0.00     0.057 A 
ATOM     13  C   UNL     1      10.622  13.153  13.170  1.00  0.00     0.027 A 
ATOM     14  C   UNL     1      12.869  13.772  11.670  1.00  0.00     0.095 A 
ATOM     15  C   UNL     1      10.470  13.548  11.828  1.00  0.00     0.014 A 
ATOM     16  N   UNL     1      13.813  14.132  10.781  1.00  0.00    -0.173 NA
ATOM     17  C   UNL     1      11.623  13.847  11.107  1.00  0.00     0.023 A 
ATOM     18  N   UNL     1      13.174  14.434   9.655  1.00  0.00    -0.272 N 
ATOM     19  C   UNL     1      11.838  14.263   9.810  1.00  0.00     0.043 A 
ATOM     20  C   UNL     1      13.854  14.881   8.444  1.00  0.00     0.174 C 
ATOM     21  C   UNL     1      10.800  14.572   8.772  1.00  0.00     0.067 C 
ENDBRANCH   9  11
ENDBRANCH   4   9
ENDBRANCH   1   3
BRANCH   1  22
ATOM     22  C   UNL     1      15.422  11.180  18.714  1.00  0.00     0.042 A 
ATOM     23  C   UNL     1      16.349  12.175  18.371  1.00  0.00     0.026 A 
ATOM     24  C   UNL     1      14.710  11.294  19.913  1.00  0.00     0.048 A 
ATOM     25  C   UNL     1      16.590  13.242  19.236  1.00  0.00     0.007 A 
ATOM     26  C   UNL     1      14.939  12.364  20.794  1.00  0.00     0.087 A 
ATOM     27  C   UNL     1      15.912  13.340  20.461  1.00  0.00    -0.031 A 
ATOM     28  C   UNL     1      16.202  14.516  21.356  1.00  0.00     0.046 C 
BRANCH  26  29
ATOM     29  S   UNL     1      14.013  12.428  22.306  1.00  0.00     0.238 S 
ATOM     30  O   UNL     1      13.223  13.706  22.366  1.00  0.00    -0.207 OA
ATOM     31  O   UNL     1      14.944  12.399  23.486  1.00  0.00    -0.207 OA
BRANCH  29  32
ATOM     32  N   UNL     1      12.913  11.095  22.389  1.00  0.00    -0.225 NA
ATOM     33  H   UNL     1      13.256  10.454  23.139  1.00  0.00     0.137 HD
ATOM     34  H   UNL     1      11.988  11.464  22.704  1.00  0.00     0.137 HD
ENDBRANCH  29  32
ENDBRANCH  26  29
ENDBRANCH   1  22
TORSDOF 6
ENDMDL
MODEL 5
REMARK VINA RESULT:    -8.833      3.168      5.147
REMARK INTER + INTRA:         -12.152
REMARK INTER:                 -11.847
REMARK INTRA:                  -0.305
REMARK UNBOUND:                -0.479
REMARK SMILES Cc1ccc(Nc2nccc(N(C)c3ccc4c(C)n(C)nc4c3)n2)cc1S(N)(=O)=O
REMARK SMILES IDX 6 1 7 3 11 4 10 5 25 6 9 7 8 8 12 9 13 10 14 11 24 12 15 13
REMARK SMILES IDX 23 14 16 15 22 16 17 17 20 18 18 19 21 20 19 21 5 22 4 23
REMARK SMILES IDX 26 24 3 25 27 26 2 27 1 28 28 29 30 30 31 31 29 32
REMARK H PARENT 6 2 29 33 29 34
REMARK Flexibility Score: inf
ROOT
ATOM      1  N   UNL     1      11.349  11.044  14.245  1.00  0.00    -0.324 N 
ATOM      2  H   UNL     1      11.154  10.233  13.617  1.00  0.00     0.170 HD
ENDROOT
BRANCH   1   3
ATOM      3  C   UNL     1      10.852  12.329  13.844  1.00  0.00     0.229 A 
ATOM      4  C   UNL     1      10.561  13.948  12.128  1.00  0.00     0.138 A 
ATOM      5  C   UNL     1       9.972  14.818  13.059  1.00  0.00     0.067 A 
ATOM      6  N   UNL     1      10.998  12.731  12.553  1.00  0.00    -0.195 NA
ATOM      7  C   UNL     1       9.840  14.398  14.381  1.00  0.00     0.119 A 
ATOM      8  N   UNL     1      10.283  13.170  14.749  1.00  0.00    -0.221 NA
BRANCH   4   9
ATOM      9  N   UNL     1      10.733  14.332  10.746  1.00  0.00    -0.329 N 
ATOM     10  C   UNL     1      11.986  14.000  10.060  1.00  0.00     0.152 C 
BRANCH   9  11
ATOM     11  C   UNL     1       9.730  15.108  10.057  1.00  0.00     0.044 A 
ATOM     12  C   UNL     1       8.358  14.835  10.263  1.00  0.00     0.057 A 
ATOM     13  C   UNL     1      10.112  16.139   9.156  1.00  0.00     0.027 A 
ATOM     14  C   UNL     1       7.426  15.605   9.577  1.00  0.00     0.095 A 
ATOM     15  C   UNL     1       9.142  16.894   8.471  1.00  0.00     0.014 A 
ATOM     16  N   UNL     1       6.085  15.499   9.619  1.00  0.00    -0.173 NA
ATOM     17  C   UNL     1       7.803  16.598   8.714  1.00  0.00     0.023 A 
ATOM     18  N   UNL     1       5.607  16.420   8.788  1.00  0.00    -0.272 N 
ATOM     19  C   UNL     1       6.623  17.118   8.223  1.00  0.00     0.043 A 
ATOM     20  C   UNL     1       4.182  16.619   8.546  1.00  0.00     0.174 C 
ATOM     21  C   UNL     1       6.466  18.189   7.185  1.00  0.00     0.067 C 
ENDBRANCH   9  11
ENDBRANCH   4   9
ENDBRANCH   1   3
BRANCH   1  22
ATOM     22  C   UNL     1      12.175  10.827  15.401  1.00  0.00     0.042 A 
ATOM     23  C   UNL     1      13.210  11.711  15.735  1.00  0.00     0.026 A 
ATOM     24  C   UNL     1      11.899   9.747  16.249  1.00  0.00     0.048 A 
ATOM     25  C   UNL     1      13.984  11.494  16.874  1.00  0.00     0.007 A 
ATOM     26  C   UNL     1      12.668   9.516  17.401  1.00  0.00     0.087 A 
ATOM     27  C   UNL     1      13.742  10.388  17.706  1.00  0.00    -0.031 A 
ATOM     28  C   UNL     1      14.601  10.202  18.928  1.00  0.00     0.046 C 
BRANCH  26  29
ATOM     29  S   UNL     1      12.272   8.113  18.415  1.00  0.00     0.238 S 
ATOM     30  O   UNL     1      11.107   7.370  17.822  1.00  0.00    -0.207 OA
ATOM     31  O   UNL     1      11.884   8.564  19.795  1.00  0.00    -0.207 OA
BRANCH  29  32
ATOM     32  N   UNL     1      13.625   7.039  18.503  1.00  0.00    -0.225 NA
ATOM     33  H   UNL     1      13.261   6.068  18.376  1.00  0.00     0.137 HD
ATOM     34  H   UNL     1      14.245   7.241  17.688  1.00  0.00     0.137 HD
ENDBRANCH  29  32
ENDBRANCH  26  29
ENDBRANCH   1  22
TORSDOF 6
ENDMDL
MODEL 6
REMARK VINA RESULT:    -8.653      3.081      4.896
REMARK INTER + INTRA:         -11.913
REMARK INTER:                 -11.434
REMARK INTRA:                  -0.479
REMARK UNBOUND:                -0.479
REMARK SMILES Cc1ccc(Nc2nccc(N(C)c3ccc4c(C)n(C)nc4c3)n2)cc1S(N)(=O)=O
REMARK SMILES IDX 6 1 7 3 11 4 10 5 25 6 9 7 8 8 12 9 13 10 14 11 24 12 15 13
REMARK SMILES IDX 23 14 16 15 22 16 17 17 20 18 18 19 21 20 19 21 5 22 4 23
REMARK SMILES IDX 26 24 3 25 27 26 2 27 1 28 28 29 30 30 31 31 29 32
REMARK H PARENT 6 2 29 33 29 34
REMARK Flexibility Score: inf
ROOT
ATOM      1  N   UNL     1       8.977  11.167  17.916  1.00  0.00    -0.324 N 
ATOM      2  H   UNL     1       8.222  10.507  18.209  1.00  0.00     0.170 HD
ENDROOT
BRANCH   1   3
ATOM      3  C   UNL     1       8.667  12.567  17.903  1.00  0.00     0.229 A 
ATOM      4  C   UNL     1       8.024  14.493  16.666  1.00  0.00     0.138 A 
ATOM      5  C   UNL     1       8.133  15.269  17.830  1.00  0.00     0.067 A 
ATOM      6  N   UNL     1       8.309  13.163  16.734  1.00  0.00    -0.195 NA
ATOM      7  C   UNL     1       8.513  14.647  19.018  1.00  0.00     0.119 A 
ATOM      8  N   UNL     1       8.775  13.316  19.033  1.00  0.00    -0.221 NA
BRANCH   4   9
ATOM      9  N   UNL     1       7.643  15.083  15.403  1.00  0.00    -0.329 N 
ATOM     10  C   UNL     1       6.428  15.900  15.331  1.00  0.00     0.152 C 
BRANCH   9  11
ATOM     11  C   UNL     1       8.391  14.814  14.198  1.00  0.00     0.044 A 
ATOM     12  C   UNL     1       9.714  14.320  14.281  1.00  0.00     0.057 A 
ATOM     13  C   UNL     1       7.812  15.056  12.923  1.00  0.00     0.027 A 
ATOM     14  C   UNL     1      10.398  14.077  13.096  1.00  0.00     0.095 A 
ATOM     15  C   UNL     1       8.536  14.807  11.743  1.00  0.00     0.014 A 
ATOM     16  N   UNL     1      11.658  13.625  12.955  1.00  0.00    -0.173 NA
ATOM     17  C   UNL     1       9.831  14.311  11.872  1.00  0.00     0.023 A 
ATOM     18  N   UNL     1      11.895  13.570  11.648  1.00  0.00    -0.272 N 
ATOM     19  C   UNL     1      10.802  13.971  10.954  1.00  0.00     0.043 A 
ATOM     20  C   UNL     1      13.167  13.133  11.082  1.00  0.00     0.174 C 
ATOM     21  C   UNL     1      10.725  14.103   9.461  1.00  0.00     0.067 C 
ENDBRANCH   9  11
ENDBRANCH   4   9
ENDBRANCH   1   3
BRANCH   1  22
ATOM     22  C   UNL     1      10.225  10.615  17.462  1.00  0.00     0.042 A 
ATOM     23  C   UNL     1      10.641  10.751  16.131  1.00  0.00     0.026 A 
ATOM     24  C   UNL     1      11.073   9.987  18.382  1.00  0.00     0.048 A 
ATOM     25  C   UNL     1      11.866  10.229  15.717  1.00  0.00     0.007 A 
ATOM     26  C   UNL     1      12.311   9.457  17.982  1.00  0.00     0.087 A 
ATOM     27  C   UNL     1      12.702   9.558  16.624  1.00  0.00    -0.031 A 
ATOM     28  C   UNL     1      14.018   9.019  16.129  1.00  0.00     0.046 C 
BRANCH  26  29
ATOM     29  S   UNL     1      13.321   8.655  19.201  1.00  0.00     0.238 S 
ATOM     30  O   UNL     1      12.564   8.541  20.495  1.00  0.00    -0.207 OA
ATOM     31  O   UNL     1      14.563   9.462  19.457  1.00  0.00    -0.207 OA
BRANCH  29  32
ATOM     32  N   UNL     1      13.749   7.065  18.670  1.00  0.00    -0.225 NA
ATOM     33  H   UNL     1      14.035   7.138  17.668  1.00  0.00     0.137 HD
ATOM     34  H   UNL     1      14.593   6.766  19.207  1.00  0.00     0.137 HD
ENDBRANCH  29  32
ENDBRANCH  26  29
ENDBRANCH   1  22
TORSDOF 6
ENDMDL
MODEL 7
REMARK VINA RESULT:    -8.653      1.799      2.569
REMARK INTER + INTRA:         -11.913
REMARK INTER:                 -11.306
REMARK INTRA:                  -0.608
REMARK UNBOUND:                -0.479
REMARK SMILES Cc1ccc(Nc2nccc(N(C)c3ccc4c(C)n(C)nc4c3)n2)cc1S(N)(=O)=O
REMARK SMILES IDX 6 1 7 3 11 4 10 5 25 6 9 7 8 8 12 9 13 10 14 11 24 12 15 13
REMARK SMILES IDX 23 14 16 15 22 16 17 17 20 18 18 19 21 20 19 21 5 22 4 23
REMARK SMILES IDX 26 24 3 25 27 26 2 27 1 28 28 29 30 30 31 31 29 32
REMARK H PARENT 6 2 29 33 29 34
REMARK Flexibility Score: inf
ROOT
ATOM      1  N   UNL     1      14.729   9.494  17.945  1.00  0.00    -0.324 N 
ATOM      2  H   UNL     1      15.727   9.256  17.749  1.00  0.00     0.170 HD
ENDROOT
BRANCH   1   3
ATOM      3  C   UNL     1      13.870   9.738  16.822  1.00  0.00     0.229 A 
ATOM      4  C   UNL     1      12.728  11.299  15.441  1.00  0.00     0.138 A 
ATOM      5  C   UNL     1      12.168  10.236  14.715  1.00  0.00     0.067 A 
ATOM      6  N   UNL     1      13.554  11.016  16.486  1.00  0.00    -0.195 NA
ATOM      7  C   UNL     1      12.491   8.930  15.079  1.00  0.00     0.119 A 
ATOM      8  N   UNL     1      13.329   8.705  16.122  1.00  0.00    -0.221 NA
BRANCH   4   9
ATOM      9  N   UNL     1      12.422  12.673  15.117  1.00  0.00    -0.329 N 
ATOM     10  C   UNL     1      12.298  13.655  16.199  1.00  0.00     0.152 C 
BRANCH   9  11
ATOM     11  C   UNL     1      12.155  13.077  13.757  1.00  0.00     0.044 A 
ATOM     12  C   UNL     1      13.220  13.470  12.913  1.00  0.00     0.057 A 
ATOM     13  C   UNL     1      10.823  13.099  13.262  1.00  0.00     0.027 A 
ATOM     14  C   UNL     1      12.916  13.855  11.612  1.00  0.00     0.095 A 
ATOM     15  C   UNL     1      10.551  13.502  11.942  1.00  0.00     0.014 A 
ATOM     16  N   UNL     1      13.772  14.274  10.661  1.00  0.00    -0.173 NA
ATOM     17  C   UNL     1      11.631  13.870  11.143  1.00  0.00     0.023 A 
ATOM     18  N   UNL     1      13.037  14.555   9.589  1.00  0.00    -0.272 N 
ATOM     19  C   UNL     1      11.727  14.312   9.840  1.00  0.00     0.043 A 
ATOM     20  C   UNL     1      13.601  15.052   8.339  1.00  0.00     0.174 C 
ATOM     21  C   UNL     1      10.599  14.577   8.887  1.00  0.00     0.067 C 
ENDBRANCH   9  11
ENDBRANCH   4   9
ENDBRANCH   1   3
BRANCH   1  22
ATOM     22  C   UNL     1      14.325   9.652  19.316  1.00  0.00     0.042 A 
ATOM     23  C   UNL     1      13.765   8.588  20.038  1.00  0.00     0.026 A 
ATOM     24  C   UNL     1      14.555  10.871  19.965  1.00  0.00     0.048 A 
ATOM     25  C   UNL     1      13.402   8.756  21.374  1.00  0.00     0.007 A 
ATOM     26  C   UNL     1      14.197  11.055  21.310  1.00  0.00     0.087 A 
ATOM     27  C   UNL     1      13.589   9.990  22.019  1.00  0.00    -0.031 A 
ATOM     28  C   UNL     1      13.187  10.117  23.464  1.00  0.00     0.046 C 
BRANCH  26  29
ATOM     29  S   UNL     1      14.500  12.637  22.057  1.00  0.00     0.238 S 
ATOM     30  O   UNL     1      15.423  12.476  23.233  1.00  0.00    -0.207 OA
ATOM     31  O   UNL     1      13.212  13.232  22.551  1.00  0.00    -0.207 OA
BRANCH  29  32
ATOM     32  N   UNL     1      15.243  13.703  20.914  1.00  0.00    -0.225 NA
ATOM     33  H   UNL     1      14.591  13.793  20.103  1.00  0.00     0.137 HD
ATOM     34  H   UNL     1      15.310  14.647  21.357  1.00  0.00     0.137 HD
ENDBRANCH  29  32
ENDBRANCH  26  29
ENDBRANCH   1  22
TORSDOF 6
ENDMDL
MODEL 8
REMARK VINA RESULT:    -8.636      3.057      3.756
REMARK INTER + INTRA:         -11.891
REMARK INTER:                 -11.128
REMARK INTRA:                  -0.763
REMARK UNBOUND:                -0.479
REMARK SMILES Cc1ccc(Nc2nccc(N(C)c3ccc4c(C)n(C)nc4c3)n2)cc1S(N)(=O)=O
REMARK SMILES IDX 6 1 7 3 11 4 10 5 25 6 9 7 8 8 12 9 13 10 14 11 24 12 15 13
REMARK SMILES IDX 23 14 16 15 22 16 17 17 20 18 18 19 21 20 19 21 5 22 4 23
REMARK SMILES IDX 26 24 3 25 27 26 2 27 1 28 28 29 30 30 31 31 29 32
REMARK H PARENT 6 2 29 33 29 34
REMARK Flexibility Score: inf
ROOT
ATOM      1  N   UNL     1      15.118  10.119  17.837  1.00  0.00    -0.324 N 
ATOM      2  H   UNL     1      15.682   9.246  17.939  1.00  0.00     0.170 HD
ENDROOT
BRANCH   1   3
ATOM      3  C   UNL     1      14.116  10.147  16.811  1.00  0.00     0.229 A 
ATOM      4  C   UNL     1      12.585  11.408  15.501  1.00  0.00     0.138 A 
ATOM      5  C   UNL     1      12.139  10.224  14.894  1.00  0.00     0.067 A 
ATOM      6  N   UNL     1      13.554  11.332  16.455  1.00  0.00    -0.195 NA
ATOM      7  C   UNL     1      12.716   9.014  15.277  1.00  0.00     0.119 A 
ATOM      8  N   UNL     1      13.685   8.997  16.226  1.00  0.00    -0.221 NA
BRANCH   4   9
ATOM      9  N   UNL     1      12.018  12.690  15.151  1.00  0.00    -0.329 N 
ATOM     10  C   UNL     1      11.497  13.557  16.213  1.00  0.00     0.152 C 
BRANCH   9  11
ATOM     11  C   UNL     1      11.881  13.095  13.773  1.00  0.00     0.044 A 
ATOM     12  C   UNL     1      13.025  13.462  13.025  1.00  0.00     0.057 A 
ATOM     13  C   UNL     1      10.599  13.142  13.161  1.00  0.00     0.027 A 
ATOM     14  C   UNL     1      12.847  13.848  11.702  1.00  0.00     0.095 A 
ATOM     15  C   UNL     1      10.454  13.545  11.821  1.00  0.00     0.014 A 
ATOM     16  N   UNL     1      13.792  14.245  10.830  1.00  0.00    -0.173 NA
ATOM     17  C   UNL     1      11.608  13.887  11.120  1.00  0.00     0.023 A 
ATOM     18  N   UNL     1      13.161  14.537   9.697  1.00  0.00    -0.272 N 
ATOM     19  C   UNL     1      11.829  14.322   9.830  1.00  0.00     0.043 A 
ATOM     20  C   UNL     1      13.844  15.017   8.500  1.00  0.00     0.174 C 
ATOM     21  C   UNL     1      10.796  14.608   8.780  1.00  0.00     0.067 C 
ENDBRANCH   9  11
ENDBRANCH   4   9
ENDBRANCH   1   3
BRANCH   1  22
ATOM     22  C   UNL     1      15.455  11.248  18.662  1.00  0.00     0.042 A 
ATOM     23  C   UNL     1      14.799  11.484  19.878  1.00  0.00     0.026 A 
ATOM     24  C   UNL     1      16.504  12.091  18.278  1.00  0.00     0.048 A 
ATOM     25  C   UNL     1      15.158  12.570  20.674  1.00  0.00     0.007 A 
ATOM     26  C   UNL     1      16.879  13.189  19.069  1.00  0.00     0.087 A 
ATOM     27  C   UNL     1      16.180  13.447  20.274  1.00  0.00    -0.031 A 
ATOM     28  C   UNL     1      16.535  14.601  21.173  1.00  0.00     0.046 C 
BRANCH  26  29
ATOM     29  S   UNL     1      18.205  14.225  18.504  1.00  0.00     0.238 S 
ATOM     30  O   UNL     1      18.705  13.732  17.174  1.00  0.00    -0.207 OA
ATOM     31  O   UNL     1      19.348  14.183  19.478  1.00  0.00    -0.207 OA
BRANCH  29  32
ATOM     32  N   UNL     1      17.650  15.854  18.316  1.00  0.00    -0.225 NA
ATOM     33  H   UNL     1      16.938  16.028  19.060  1.00  0.00     0.137 HD
ATOM     34  H   UNL     1      18.456  16.489  18.510  1.00  0.00     0.137 HD
ENDBRANCH  29  32
ENDBRANCH  26  29
ENDBRANCH   1  22
TORSDOF 6
ENDMDL
MODEL 9
REMARK VINA RESULT:    -8.629      3.435      7.145
REMARK INTER + INTRA:         -11.882
REMARK INTER:                 -11.273
REMARK INTRA:                  -0.609
REMARK UNBOUND:                -0.479
REMARK SMILES Cc1ccc(Nc2nccc(N(C)c3ccc4c(C)n(C)nc4c3)n2)cc1S(N)(=O)=O
REMARK SMILES IDX 6 1 7 3 11 4 10 5 25 6 9 7 8 8 12 9 13 10 14 11 24 12 15 13
REMARK SMILES IDX 23 14 16 15 22 16 17 17 20 18 18 19 21 20 19 21 5 22 4 23
REMARK SMILES IDX 26 24 3 25 27 26 2 27 1 28 28 29 30 30 31 31 29 32
REMARK H PARENT 6 2 29 33 29 34
REMARK Flexibility Score: inf
ROOT
ATOM      1  N   UNL     1      11.653  11.389  14.180  1.00  0.00    -0.324 N 
ATOM      2  H   UNL     1      11.149  11.182  13.289  1.00  0.00     0.170 HD
ENDROOT
BRANCH   1   3
ATOM      3  C   UNL     1      12.354  12.637  14.272  1.00  0.00     0.229 A 
ATOM      4  C   UNL     1      13.541  14.205  15.608  1.00  0.00     0.138 A 
ATOM      5  C   UNL     1      13.645  15.060  14.499  1.00  0.00     0.067 A 
ATOM      6  N   UNL     1      12.884  13.021  15.464  1.00  0.00    -0.195 NA
ATOM      7  C   UNL     1      13.087  14.658  13.287  1.00  0.00     0.119 A 
ATOM      8  N   UNL     1      12.452  13.463  13.196  1.00  0.00    -0.221 NA
BRANCH   4   9
ATOM      9  N   UNL     1      14.092  14.571  16.892  1.00  0.00    -0.329 N 
ATOM     10  C   UNL     1      13.312  15.431  17.788  1.00  0.00     0.152 C 
BRANCH   9  11
ATOM     11  C   UNL     1      15.427  14.175  17.272  1.00  0.00     0.044 A 
ATOM     12  C   UNL     1      16.531  14.992  16.933  1.00  0.00     0.057 A 
ATOM     13  C   UNL     1      15.643  12.958  17.972  1.00  0.00     0.027 A 
ATOM     14  C   UNL     1      17.799  14.570  17.315  1.00  0.00     0.095 A 
ATOM     15  C   UNL     1      16.942  12.558  18.338  1.00  0.00     0.014 A 
ATOM     16  N   UNL     1      18.973  15.186  17.081  1.00  0.00    -0.173 NA
ATOM     17  C   UNL     1      17.998  13.398  17.993  1.00  0.00     0.023 A 
ATOM     18  N   UNL     1      19.917  14.412  17.607  1.00  0.00    -0.272 N 
ATOM     19  C   UNL     1      19.362  13.316  18.181  1.00  0.00     0.043 A 
ATOM     20  C   UNL     1      21.339  14.733  17.552  1.00  0.00     0.174 C 
ATOM     21  C   UNL     1      20.125  12.190  18.813  1.00  0.00     0.067 C 
ENDBRANCH   9  11
ENDBRANCH   4   9
ENDBRANCH   1   3
BRANCH   1  22
ATOM     22  C   UNL     1      11.683  10.372  15.197  1.00  0.00     0.042 A 
ATOM     23  C   UNL     1      12.474   9.223  15.055  1.00  0.00     0.026 A 
ATOM     24  C   UNL     1      10.962  10.563  16.381  1.00  0.00     0.048 A 
ATOM     25  C   UNL     1      12.507   8.261  16.064  1.00  0.00     0.007 A 
ATOM     26  C   UNL     1      10.986   9.605  17.407  1.00  0.00     0.087 A 
ATOM     27  C   UNL     1      11.750   8.424  17.236  1.00  0.00    -0.031 A 
ATOM     28  C   UNL     1      11.826   7.360  18.299  1.00  0.00     0.046 C 
BRANCH  26  29
ATOM     29  S   UNL     1      10.026   9.908  18.870  1.00  0.00     0.238 S 
ATOM     30  O   UNL     1       8.885   8.932  18.941  1.00  0.00    -0.207 OA
ATOM     31  O   UNL     1       9.453  11.296  18.835  1.00  0.00    -0.207 OA
BRANCH  29  32
ATOM     32  N   UNL     1      11.010   9.711  20.280  1.00  0.00    -0.225 NA
ATOM     33  H   UNL     1      11.494   8.789  20.196  1.00  0.00     0.137 HD
ATOM     34  H   UNL     1      11.750  10.447  20.257  1.00  0.00     0.137 HD
ENDBRANCH  29  32
ENDBRANCH  26  29
ENDBRANCH   1  22
TORSDOF 6
ENDMDL
MODEL 10
REMARK VINA RESULT:    -8.628      5.091      9.120
REMARK INTER + INTRA:         -11.880
REMARK INTER:                 -10.889
REMARK INTRA:                  -0.992
REMARK UNBOUND:                -0.479
REMARK SMILES Cc1ccc(Nc2nccc(N(C)c3ccc4c(C)n(C)nc4c3)n2)cc1S(N)(=O)=O
REMARK SMILES IDX 6 1 7 3 11 4 10 5 25 6 9 7 8 8 12 9 13 10 14 11 24 12 15 13
REMARK SMILES IDX 23 14 16 15 22 16 17 17 20 18 18 19 21 20 19 21 5 22 4 23
REMARK SMILES IDX 26 24 3 25 27 26 2 27 1 28 28 29 30 30 31 31 29 32
REMARK H PARENT 6 2 29 33 29 34
REMARK Flexibility Score: inf
ROOT
ATOM      1  N   UNL     1       9.150   9.700  18.515  1.00  0.00    -0.324 N 
ATOM      2  H   UNL     1       8.324   9.180  18.885  1.00  0.00     0.170 HD
ENDROOT
BRANCH   1   3
ATOM      3  C   UNL     1      10.374   8.972  18.347  1.00  0.00     0.229 A 
ATOM      4  C   UNL     1      12.548   8.441  19.150  1.00  0.00     0.138 A 
ATOM      5  C   UNL     1      12.763   7.640  18.018  1.00  0.00     0.067 A 
ATOM      6  N   UNL     1      11.360   9.096  19.274  1.00  0.00    -0.195 NA
ATOM      7  C   UNL     1      11.748   7.531  17.069  1.00  0.00     0.119 A 
ATOM      8  N   UNL     1      10.580   8.197  17.248  1.00  0.00    -0.221 NA
BRANCH   4   9
ATOM      9  N   UNL     1      13.567   8.600  20.163  1.00  0.00    -0.329 N 
ATOM     10  C   UNL     1      14.278   7.416  20.656  1.00  0.00     0.152 C 
BRANCH   9  11
ATOM     11  C   UNL     1      13.836   9.888  20.755  1.00  0.00     0.044 A 
ATOM     12  C   UNL     1      13.500  10.130  22.107  1.00  0.00     0.057 A 
ATOM     13  C   UNL     1      14.424  10.925  19.982  1.00  0.00     0.027 A 
ATOM     14  C   UNL     1      13.773  11.386  22.636  1.00  0.00     0.095 A 
ATOM     15  C   UNL     1      14.681  12.188  20.547  1.00  0.00     0.014 A 
ATOM     16  N   UNL     1      13.521  11.822  23.884  1.00  0.00    -0.173 NA
ATOM     17  C   UNL     1      14.344  12.378  21.885  1.00  0.00     0.023 A 
ATOM     18  N   UNL     1      13.928  13.087  23.931  1.00  0.00    -0.272 N 
ATOM     19  C   UNL     1      14.445  13.460  22.734  1.00  0.00     0.043 A 
ATOM     20  C   UNL     1      13.817  13.921  25.123  1.00  0.00     0.174 C 
ATOM     21  C   UNL     1      14.940  14.836  22.396  1.00  0.00     0.067 C 
ENDBRANCH   9  11
ENDBRANCH   4   9
ENDBRANCH   1   3
BRANCH   1  22
ATOM     22  C   UNL     1       9.020  11.115  18.297  1.00  0.00     0.042 A 
ATOM     23  C   UNL     1       8.478  11.958  19.277  1.00  0.00     0.026 A 
ATOM     24  C   UNL     1       9.505  11.675  17.109  1.00  0.00     0.048 A 
ATOM     25  C   UNL     1       8.383  13.331  19.054  1.00  0.00     0.007 A 
ATOM     26  C   UNL     1       9.419  13.056  16.869  1.00  0.00     0.087 A 
ATOM     27  C   UNL     1       8.827  13.894  17.847  1.00  0.00    -0.031 A 
ATOM     28  C   UNL     1       8.709  15.383  17.658  1.00  0.00     0.046 C 
BRANCH  26  29
ATOM     29  S   UNL     1      10.035  13.688  15.329  1.00  0.00     0.238 S 
ATOM     30  O   UNL     1      11.083  14.733  15.591  1.00  0.00    -0.207 OA
ATOM     31  O   UNL     1       8.921  14.327  14.549  1.00  0.00    -0.207 OA
BRANCH  29  32
ATOM     32  N   UNL     1      10.748  12.412  14.403  1.00  0.00    -0.225 NA
ATOM     33  H   UNL     1       9.979  11.758  14.130  1.00  0.00     0.137 HD
ATOM     34  H   UNL     1      11.121  12.828  13.521  1.00  0.00     0.137 HD
ENDBRANCH  29  32
ENDBRANCH  26  29
ENDBRANCH   1  22
TORSDOF 6
ENDMDL
MODEL 11
REMARK VINA RESULT:    -8.565      5.062      9.129
REMARK INTER + INTRA:         -11.798
REMARK INTER:                 -11.211
REMARK INTRA:                  -0.587
REMARK UNBOUND:                -0.479
REMARK SMILES Cc1ccc(Nc2nccc(N(C)c3ccc4c(C)n(C)nc4c3)n2)cc1S(N)(=O)=O
REMARK SMILES IDX 6 1 7 3 11 4 10 5 25 6 9 7 8 8 12 9 13 10 14 11 24 12 15 13
REMARK SMILES IDX 23 14 16 15 22 16 17 17 20 18 18 19 21 20 19 21 5 22 4 23
REMARK SMILES IDX 26 24 3 25 27 26 2 27 1 28 28 29 30 30 31 31 29 32
REMARK H PARENT 6 2 29 33 29 34
REMARK Flexibility Score: inf
ROOT
ATOM      1  N   UNL     1       9.449  13.282  16.933  1.00  0.00    -0.324 N 
ATOM      2  H   UNL     1       9.404  14.086  17.598  1.00  0.00     0.170 HD
ENDROOT
BRANCH   1   3
ATOM      3  C   UNL     1       9.457  11.960  17.489  1.00  0.00     0.229 A 
ATOM      4  C   UNL     1      10.703  10.080  18.240  1.00  0.00     0.138 A 
ATOM      5  C   UNL     1       9.504   9.395  18.492  1.00  0.00     0.067 A 
ATOM      6  N   UNL     1      10.643  11.342  17.731  1.00  0.00    -0.195 NA
ATOM      7  C   UNL     1       8.295  10.037  18.228  1.00  0.00     0.119 A 
ATOM      8  N   UNL     1       8.293  11.299  17.731  1.00  0.00    -0.221 NA
BRANCH   4   9
ATOM      9  N   UNL     1      11.986   9.463  18.484  1.00  0.00    -0.329 N 
ATOM     10  C   UNL     1      12.052   8.019  18.734  1.00  0.00     0.152 C 
BRANCH   9  11
ATOM     11  C   UNL     1      13.190  10.254  18.570  1.00  0.00     0.044 A 
ATOM     12  C   UNL     1      13.500  10.943  19.766  1.00  0.00     0.057 A 
ATOM     13  C   UNL     1      14.063  10.358  17.454  1.00  0.00     0.027 A 
ATOM     14  C   UNL     1      14.668  11.696  19.804  1.00  0.00     0.095 A 
ATOM     15  C   UNL     1      15.234  11.136  17.524  1.00  0.00     0.014 A 
ATOM     16  N   UNL     1      15.135  12.434  20.829  1.00  0.00    -0.173 NA
ATOM     17  C   UNL     1      15.505  11.788  18.724  1.00  0.00     0.023 A 
ATOM     18  N   UNL     1      16.264  12.994  20.407  1.00  0.00    -0.272 N 
ATOM     19  C   UNL     1      16.529  12.617  19.132  1.00  0.00     0.043 A 
ATOM     20  C   UNL     1      17.075  13.883  21.233  1.00  0.00     0.174 C 
ATOM     21  C   UNL     1      17.683  13.106  18.307  1.00  0.00     0.067 C 
ENDBRANCH   9  11
ENDBRANCH   4   9
ENDBRANCH   1   3
BRANCH   1  22
ATOM     22  C   UNL     1       9.597  13.566  15.531  1.00  0.00     0.042 A 
ATOM     23  C   UNL     1      10.588  12.940  14.761  1.00  0.00     0.026 A 
ATOM     24  C   UNL     1       8.694  14.433  14.907  1.00  0.00     0.048 A 
ATOM     25  C   UNL     1      10.698  13.211  13.398  1.00  0.00     0.007 A 
ATOM     26  C   UNL     1       8.790  14.716  13.534  1.00  0.00     0.087 A 
ATOM     27  C   UNL     1       9.823  14.115  12.773  1.00  0.00    -0.031 A 
ATOM     28  C   UNL     1       9.980  14.369  11.297  1.00  0.00     0.046 C 
BRANCH  26  29
ATOM     29  S   UNL     1       7.622  15.844  12.819  1.00  0.00     0.238 S 
ATOM     30  O   UNL     1       6.890  15.172  11.691  1.00  0.00    -0.207 OA
ATOM     31  O   UNL     1       8.334  17.045  12.264  1.00  0.00    -0.207 OA
BRANCH  29  32
ATOM     32  N   UNL     1       6.466  16.340  14.008  1.00  0.00    -0.225 NA
ATOM     33  H   UNL     1       6.645  15.777  14.869  1.00  0.00     0.137 HD
ATOM     34  H   UNL     1       6.666  17.336  14.249  1.00  0.00     0.137 HD
ENDBRANCH  29  32
ENDBRANCH  26  29
ENDBRANCH   1  22
TORSDOF 6
ENDMDL
MODEL 12
REMARK VINA RESULT:    -8.550      5.472      7.688
REMARK INTER + INTRA:         -11.778
REMARK INTER:                 -11.156
REMARK INTRA:                  -0.623
REMARK UNBOUND:                -0.479
REMARK SMILES Cc1ccc(Nc2nccc(N(C)c3ccc4c(C)n(C)nc4c3)n2)cc1S(N)(=O)=O
REMARK SMILES IDX 6 1 7 3 11 4 10 5 25 6 9 7 8 8 12 9 13 10 14 11 24 12 15 13
REMARK SMILES IDX 23 14 16 15 22 16 17 17 20 18 18 19 21 20 19 21 5 22 4 23
REMARK SMILES IDX 26 24 3 25 27 26 2 27 1 28 28 29 30 30 31 31 29 32
REMARK H PARENT 6 2 29 33 29 34
REMARK Flexibility Score: inf
ROOT
ATOM      1  N   UNL     1      10.575  12.629  14.483  1.00  0.00    -0.324 N 
ATOM      2  H   UNL     1      10.292  12.267  13.545  1.00  0.00     0.170 HD
ENDROOT
BRANCH   1   3
ATOM      3  C   UNL     1      10.117  13.935  14.857  1.00  0.00     0.229 A 
ATOM      4  C   UNL     1       8.794  15.288  16.296  1.00  0.00     0.138 A 
ATOM      5  C   UNL     1       9.163  16.423  15.558  1.00  0.00     0.067 A 
ATOM      6  N   UNL     1       9.272  14.072  15.913  1.00  0.00    -0.195 NA
ATOM      7  C   UNL     1      10.021  16.267  14.470  1.00  0.00     0.119 A 
ATOM      8  N   UNL     1      10.477  15.033  14.139  1.00  0.00    -0.221 NA
BRANCH   4   9
ATOM      9  N   UNL     1       7.901  15.386  17.428  1.00  0.00    -0.329 N 
ATOM     10  C   UNL     1       8.264  14.729  18.687  1.00  0.00     0.152 C 
BRANCH   9  11
ATOM     11  C   UNL     1       6.623  16.047  17.315  1.00  0.00     0.044 A 
ATOM     12  C   UNL     1       5.816  15.837  16.172  1.00  0.00     0.057 A 
ATOM     13  C   UNL     1       6.174  16.923  18.339  1.00  0.00     0.027 A 
ATOM     14  C   UNL     1       4.594  16.496  16.103  1.00  0.00     0.095 A 
ATOM     15  C   UNL     1       4.934  17.581  18.233  1.00  0.00     0.014 A 
ATOM     16  N   UNL     1       3.691  16.446  15.106  1.00  0.00    -0.173 NA
ATOM     17  C   UNL     1       4.167  17.336  17.096  1.00  0.00     0.023 A 
ATOM     18  N   UNL     1       2.692  17.249  15.461  1.00  0.00    -0.272 N 
ATOM     19  C   UNL     1       2.941  17.803  16.673  1.00  0.00     0.043 A 
ATOM     20  C   UNL     1       1.512  17.474  14.632  1.00  0.00     0.174 C 
ATOM     21  C   UNL     1       2.068  18.812  17.359  1.00  0.00     0.067 C 
ENDBRANCH   9  11
ENDBRANCH   4   9
ENDBRANCH   1   3
BRANCH   1  22
ATOM     22  C   UNL     1      11.475  11.834  15.275  1.00  0.00     0.042 A 
ATOM     23  C   UNL     1      12.837  12.149  15.367  1.00  0.00     0.026 A 
ATOM     24  C   UNL     1      10.969  10.765  16.023  1.00  0.00     0.048 A 
ATOM     25  C   UNL     1      13.687  11.379  16.161  1.00  0.00     0.007 A 
ATOM     26  C   UNL     1      11.811   9.981  16.828  1.00  0.00     0.087 A 
ATOM     27  C   UNL     1      13.196  10.277  16.879  1.00  0.00    -0.031 A 
ATOM     28  C   UNL     1      14.153   9.482  17.727  1.00  0.00     0.046 C 
BRANCH  26  29
ATOM     29  S   UNL     1      11.100   8.627  17.730  1.00  0.00     0.238 S 
ATOM     30  O   UNL     1       9.605   8.639  17.570  1.00  0.00    -0.207 OA
ATOM     31  O   UNL     1      11.414   8.757  19.194  1.00  0.00    -0.207 OA
BRANCH  29  32
ATOM     32  N   UNL     1      11.708   7.124  17.127  1.00  0.00    -0.225 NA
ATOM     33  H   UNL     1      12.732   7.245  16.962  1.00  0.00     0.137 HD
ATOM     34  H   UNL     1      11.604   6.411  17.883  1.00  0.00     0.137 HD
ENDBRANCH  29  32
ENDBRANCH  26  29
ENDBRANCH   1  22
TORSDOF 6
ENDMDL
MODEL 13
REMARK VINA RESULT:    -8.432      3.830      5.472
REMARK INTER + INTRA:         -11.622
REMARK INTER:                 -10.245
REMARK INTRA:                  -1.378
REMARK UNBOUND:                -0.479
REMARK SMILES Cc1ccc(Nc2nccc(N(C)c3ccc4c(C)n(C)nc4c3)n2)cc1S(N)(=O)=O
REMARK SMILES IDX 6 1 7 3 11 4 10 5 25 6 9 7 8 8 12 9 13 10 14 11 24 12 15 13
REMARK SMILES IDX 23 14 16 15 22 16 17 17 20 18 18 19 21 20 19 21 5 22 4 23
REMARK SMILES IDX 26 24 3 25 27 26 2 27 1 28 28 29 30 30 31 31 29 32
REMARK H PARENT 6 2 29 33 29 34
REMARK Flexibility Score: inf
ROOT
ATOM      1  N   UNL     1      14.601  11.179  20.408  1.00  0.00    -0.324 N 
ATOM      2  H   UNL     1      14.685  11.389  21.427  1.00  0.00     0.170 HD
ENDROOT
BRANCH   1   3
ATOM      3  C   UNL     1      14.105   9.886  20.034  1.00  0.00     0.229 A 
ATOM      4  C   UNL     1      12.837   8.556  18.526  1.00  0.00     0.138 A 
ATOM      5  C   UNL     1      13.080   7.429  19.327  1.00  0.00     0.067 A 
ATOM      6  N   UNL     1      13.348   9.758  18.913  1.00  0.00    -0.195 NA
ATOM      7  C   UNL     1      13.849   7.578  20.480  1.00  0.00     0.119 A 
ATOM      8  N   UNL     1      14.342   8.797  20.813  1.00  0.00    -0.221 NA
BRANCH   4   9
ATOM      9  N   UNL     1      12.041   8.465  17.324  1.00  0.00    -0.329 N 
ATOM     10  C   UNL     1      11.636   7.145  16.830  1.00  0.00     0.152 C 
BRANCH   9  11
ATOM     11  C   UNL     1      11.708   9.643  16.559  1.00  0.00     0.044 A 
ATOM     12  C   UNL     1      10.726  10.542  17.034  1.00  0.00     0.057 A 
ATOM     13  C   UNL     1      12.352   9.899  15.318  1.00  0.00     0.027 A 
ATOM     14  C   UNL     1      10.434  11.662  16.263  1.00  0.00     0.095 A 
ATOM     15  C   UNL     1      12.028  11.039  14.559  1.00  0.00     0.014 A 
ATOM     16  N   UNL     1       9.530  12.624  16.525  1.00  0.00    -0.173 NA
ATOM     17  C   UNL     1      11.062  11.902  15.071  1.00  0.00     0.023 A 
ATOM     18  N   UNL     1       9.581  13.476  15.505  1.00  0.00    -0.272 N 
ATOM     19  C   UNL     1      10.510  13.076  14.602  1.00  0.00     0.043 A 
ATOM     20  C   UNL     1       8.737  14.662  15.410  1.00  0.00     0.174 C 
ATOM     21  C   UNL     1      10.794  13.753  13.294  1.00  0.00     0.067 C 
ENDBRANCH   9  11
ENDBRANCH   4   9
ENDBRANCH   1   3
BRANCH   1  22
ATOM     22  C   UNL     1      15.077  12.160  19.470  1.00  0.00     0.042 A 
ATOM     23  C   UNL     1      16.430  12.232  19.113  1.00  0.00     0.026 A 
ATOM     24  C   UNL     1      14.161  13.019  18.850  1.00  0.00     0.048 A 
ATOM     25  C   UNL     1      16.866  13.175  18.184  1.00  0.00     0.007 A 
ATOM     26  C   UNL     1      14.584  13.973  17.911  1.00  0.00     0.087 A 
ATOM     27  C   UNL     1      15.961  14.070  17.591  1.00  0.00    -0.031 A 
ATOM     28  C   UNL     1      16.481  15.065  16.588  1.00  0.00     0.046 C 
BRANCH  26  29
ATOM     29  S   UNL     1      13.367  15.041  17.184  1.00  0.00     0.238 S 
ATOM     30  O   UNL     1      13.331  14.835  15.695  1.00  0.00    -0.207 OA
ATOM     31  O   UNL     1      13.715  16.479  17.448  1.00  0.00    -0.207 OA
BRANCH  29  32
ATOM     32  N   UNL     1      11.800  14.686  17.828  1.00  0.00    -0.225 NA
ATOM     33  H   UNL     1      11.942  14.206  18.745  1.00  0.00     0.137 HD
ATOM     34  H   UNL     1      11.325  15.594  18.030  1.00  0.00     0.137 HD
ENDBRANCH  29  32
ENDBRANCH  26  29
ENDBRANCH   1  22
TORSDOF 6
ENDMDL
MODEL 14
REMARK VINA RESULT:    -8.412      5.842      7.867
REMARK INTER + INTRA:         -11.596
REMARK INTER:                 -11.221
REMARK INTRA:                  -0.375
REMARK UNBOUND:                -0.479
REMARK SMILES Cc1ccc(Nc2nccc(N(C)c3ccc4c(C)n(C)nc4c3)n2)cc1S(N)(=O)=O
REMARK SMILES IDX 6 1 7 3 11 4 10 5 25 6 9 7 8 8 12 9 13 10 14 11 24 12 15 13
REMARK SMILES IDX 23 14 16 15 22 16 17 17 20 18 18 19 21 20 19 21 5 22 4 23
REMARK SMILES IDX 26 24 3 25 27 26 2 27 1 28 28 29 30 30 31 31 29 32
REMARK H PARENT 6 2 29 33 29 34
REMARK Flexibility Score: inf
ROOT
ATOM      1  N   UNL     1       9.016  11.361  17.571  1.00  0.00    -0.324 N 
ATOM      2  H   UNL     1       8.150  10.781  17.512  1.00  0.00     0.170 HD
ENDROOT
BRANCH   1   3
ATOM      3  C   UNL     1       8.869  12.740  17.938  1.00  0.00     0.229 A 
ATOM      4  C   UNL     1       8.180  14.936  17.344  1.00  0.00     0.138 A 
ATOM      5  C   UNL     1       8.636  15.407  18.585  1.00  0.00     0.067 A 
ATOM      6  N   UNL     1       8.323  13.614  17.051  1.00  0.00    -0.195 NA
ATOM      7  C   UNL     1       9.204  14.502  19.480  1.00  0.00     0.119 A 
ATOM      8  N   UNL     1       9.313  13.193  19.141  1.00  0.00    -0.221 NA
BRANCH   4   9
ATOM      9  N   UNL     1       7.591  15.829  16.372  1.00  0.00    -0.329 N 
ATOM     10  C   UNL     1       8.393  16.273  15.228  1.00  0.00     0.152 C 
BRANCH   9  11
ATOM     11  C   UNL     1       6.259  16.355  16.554  1.00  0.00     0.044 A 
ATOM     12  C   UNL     1       5.263  16.113  15.579  1.00  0.00     0.057 A 
ATOM     13  C   UNL     1       5.943  17.132  17.701  1.00  0.00     0.027 A 
ATOM     14  C   UNL     1       3.995  16.641  15.792  1.00  0.00     0.095 A 
ATOM     15  C   UNL     1       4.651  17.659  17.881  1.00  0.00     0.014 A 
ATOM     16  N   UNL     1       2.920  16.541  14.989  1.00  0.00    -0.173 NA
ATOM     17  C   UNL     1       3.699  17.386  16.902  1.00  0.00     0.023 A 
ATOM     18  N   UNL     1       1.941  17.217  15.582  1.00  0.00    -0.272 N 
ATOM     19  C   UNL     1       2.374  17.739  16.756  1.00  0.00     0.043 A 
ATOM     20  C   UNL     1       0.604  17.353  15.016  1.00  0.00     0.174 C 
ATOM     21  C   UNL     1       1.565  18.618  17.664  1.00  0.00     0.067 C 
ENDBRANCH   9  11
ENDBRANCH   4   9
ENDBRANCH   1   3
BRANCH   1  22
ATOM     22  C   UNL     1      10.265  10.759  17.190  1.00  0.00     0.042 A 
ATOM     23  C   UNL     1      10.751  10.857  15.878  1.00  0.00     0.026 A 
ATOM     24  C   UNL     1      11.045  10.120  18.161  1.00  0.00     0.048 A 
ATOM     25  C   UNL     1      11.976  10.286  15.535  1.00  0.00     0.007 A 
ATOM     26  C   UNL     1      12.282   9.542  17.832  1.00  0.00     0.087 A 
ATOM     27  C   UNL     1      12.743   9.605  16.494  1.00  0.00    -0.031 A 
ATOM     28  C   UNL     1      14.063   9.013  16.074  1.00  0.00     0.046 C 
BRANCH  26  29
ATOM     29  S   UNL     1      13.203   8.730  19.113  1.00  0.00     0.238 S 
ATOM     30  O   UNL     1      12.379   8.665  20.369  1.00  0.00    -0.207 OA
ATOM     31  O   UNL     1      14.458   9.498  19.416  1.00  0.00    -0.207 OA
BRANCH  29  32
ATOM     32  N   UNL     1      13.601   7.116  18.631  1.00  0.00    -0.225 NA
ATOM     33  H   UNL     1      12.784   6.740  18.099  1.00  0.00     0.137 HD
ATOM     34  H   UNL     1      14.400   7.172  17.961  1.00  0.00     0.137 HD
ENDBRANCH  29  32
ENDBRANCH  26  29
ENDBRANCH   1  22
TORSDOF 6
ENDMDL
MODEL 15
REMARK VINA RESULT:    -8.396      3.467      7.062
REMARK INTER + INTRA:         -11.574
REMARK INTER:                 -10.575
REMARK INTRA:                  -0.999
REMARK UNBOUND:                -0.479
REMARK SMILES Cc1ccc(Nc2nccc(N(C)c3ccc4c(C)n(C)nc4c3)n2)cc1S(N)(=O)=O
REMARK SMILES IDX 6 1 7 3 11 4 10 5 25 6 9 7 8 8 12 9 13 10 14 11 24 12 15 13
REMARK SMILES IDX 23 14 16 15 22 16 17 17 20 18 18 19 21 20 19 21 5 22 4 23
REMARK SMILES IDX 26 24 3 25 27 26 2 27 1 28 28 29 30 30 31 31 29 32
REMARK H PARENT 6 2 29 33 29 34
REMARK Flexibility Score: inf
ROOT
ATOM      1  N   UNL     1       6.849  14.985  14.627  1.00  0.00    -0.324 N 
ATOM      2  H   UNL     1       5.818  14.903  14.484  1.00  0.00     0.170 HD
ENDROOT
BRANCH   1   3
ATOM      3  C   UNL     1       7.696  14.809  13.483  1.00  0.00     0.229 A 
ATOM      4  C   UNL     1       9.882  14.496  12.604  1.00  0.00     0.138 A 
ATOM      5  C   UNL     1       9.358  14.539  11.303  1.00  0.00     0.067 A 
ATOM      6  N   UNL     1       9.034  14.647  13.659  1.00  0.00    -0.195 NA
ATOM      7  C   UNL     1       7.985  14.718  11.138  1.00  0.00     0.119 A 
ATOM      8  N   UNL     1       7.184  14.853  12.224  1.00  0.00    -0.221 NA
BRANCH   4   9
ATOM      9  N   UNL     1      11.297  14.322  12.838  1.00  0.00    -0.329 N 
ATOM     10  C   UNL     1      12.257  15.063  12.013  1.00  0.00     0.152 C 
BRANCH   9  11
ATOM     11  C   UNL     1      11.782  13.371  13.809  1.00  0.00     0.044 A 
ATOM     12  C   UNL     1      11.302  12.041  13.798  1.00  0.00     0.057 A 
ATOM     13  C   UNL     1      12.729  13.766  14.791  1.00  0.00     0.027 A 
ATOM     14  C   UNL     1      11.793  11.159  14.754  1.00  0.00     0.095 A 
ATOM     15  C   UNL     1      13.200  12.849  15.750  1.00  0.00     0.014 A 
ATOM     16  N   UNL     1      11.458   9.866  14.925  1.00  0.00    -0.173 NA
ATOM     17  C   UNL     1      12.708  11.547  15.694  1.00  0.00     0.023 A 
ATOM     18  N   UNL     1      12.157   9.430  15.968  1.00  0.00    -0.272 N 
ATOM     19  C   UNL     1      12.939  10.424  16.460  1.00  0.00     0.043 A 
ATOM     20  C   UNL     1      12.067   8.067  16.481  1.00  0.00     0.174 C 
ATOM     21  C   UNL     1      13.812  10.317  17.675  1.00  0.00     0.067 C 
ENDBRANCH   9  11
ENDBRANCH   4   9
ENDBRANCH   1   3
BRANCH   1  22
ATOM     22  C   UNL     1       7.336  15.170  15.968  1.00  0.00     0.042 A 
ATOM     23  C   UNL     1       7.054  16.337  16.692  1.00  0.00     0.026 A 
ATOM     24  C   UNL     1       8.050  14.138  16.588  1.00  0.00     0.048 A 
ATOM     25  C   UNL     1       7.516  16.485  17.999  1.00  0.00     0.007 A 
ATOM     26  C   UNL     1       8.521  14.271  17.904  1.00  0.00     0.087 A 
ATOM     27  C   UNL     1       8.271  15.473  18.612  1.00  0.00    -0.031 A 
ATOM     28  C   UNL     1       8.741  15.679  20.028  1.00  0.00     0.046 C 
BRANCH  26  29
ATOM     29  S   UNL     1       9.439  12.928  18.614  1.00  0.00     0.238 S 
ATOM     30  O   UNL     1       9.542  11.802  17.623  1.00  0.00    -0.207 OA
ATOM     31  O   UNL     1       8.737  12.411  19.838  1.00  0.00    -0.207 OA
BRANCH  29  32
ATOM     32  N   UNL     1      11.037  13.448  19.025  1.00  0.00    -0.225 NA
ATOM     33  H   UNL     1      11.705  12.894  18.443  1.00  0.00     0.137 HD
ATOM     34  H   UNL     1      11.133  14.446  18.732  1.00  0.00     0.137 HD
ENDBRANCH  29  32
ENDBRANCH  26  29
ENDBRANCH   1  22
TORSDOF 6
ENDMDL
