MODEL 1
REMARK VINA RESULT:    -8.416      0.000      0.000
REMARK INTER + INTRA:         -13.027
REMARK INTER:                 -12.598
REMARK INTRA:                  -0.429
REMARK UNBOUND:                -0.429
REMARK SMILES O=C(O)COCCN1CCN([C@H](c2ccccc2)c2ccc(Cl)cc2)CC1
REMARK SMILES IDX 6 1 5 2 4 3 2 4 1 5 3 6 7 8 8 9 9 10 27 11 10 12 26 13 11 14
REMARK SMILES IDX 12 15 13 16 14 17 18 18 15 19 17 20 16 21 19 22 20 23 25 24
REMARK SMILES IDX 21 25 24 26 22 27 23 28
REMARK H PARENT 3 7
REMARK Flexibility Score: inf
ROOT
ATOM      1  C   UNL     1       5.900  16.058  15.854  1.00  0.00     0.176 C 
ENDROOT
BRANCH   1   2
ATOM      2  O   UNL     1       4.563  15.975  15.390  1.00  0.00    -0.368 OA
BRANCH   2   3
ATOM      3  C   UNL     1       3.729  16.904  16.055  1.00  0.00     0.282 C 
BRANCH   3   4
ATOM      4  C   UNL     1       2.323  16.789  15.556  1.00  0.00     0.329 C 
ATOM      5  O   UNL     1       2.071  16.092  14.536  1.00  0.00    -0.250 OA
BRANCH   4   6
ATOM      6  O   UNL     1       1.292  17.434  16.231  1.00  0.00    -0.480 OA
ATOM      7  H   UNL     1       0.325  17.290  15.965  1.00  0.00     0.296 HD
ENDBRANCH   4   6
ENDBRANCH   3   4
ENDBRANCH   2   3
ENDBRANCH   1   2
BRANCH   1   8
ATOM      8  C   UNL     1       6.762  14.948  15.235  1.00  0.00     0.113 C 
BRANCH   8   9
ATOM      9  N   UNL     1       8.208  15.212  15.407  1.00  0.00    -0.299 NA
ATOM     10  C   UNL     1       8.953  15.021  14.137  1.00  0.00     0.100 C 
ATOM     11  C   UNL     1       8.774  14.425  16.531  1.00  0.00     0.100 C 
ATOM     12  C   UNL     1      10.442  14.739  14.389  1.00  0.00     0.101 C 
ATOM     13  C   UNL     1       9.501  13.163  16.046  1.00  0.00     0.101 C 
ATOM     14  N   UNL     1      10.664  13.494  15.179  1.00  0.00    -0.290 NA
BRANCH  14  15
ATOM     15  C   UNL     1      11.058  12.343  14.316  1.00  0.00     0.117 C 
BRANCH  15  16
ATOM     16  C   UNL     1      12.039  11.409  15.009  1.00  0.00    -0.026 A 
ATOM     17  C   UNL     1      12.038  10.026  14.740  1.00  0.00     0.006 A 
ATOM     18  C   UNL     1      12.932  11.915  15.970  1.00  0.00     0.006 A 
ATOM     19  C   UNL     1      12.926   9.176  15.406  1.00  0.00     0.000 A 
ATOM     20  C   UNL     1      13.818  11.060  16.633  1.00  0.00     0.000 A 
ATOM     21  C   UNL     1      13.816   9.693  16.350  1.00  0.00     0.000 A 
ENDBRANCH  15  16
BRANCH  15  22
ATOM     22  C   UNL     1      11.701  12.800  13.014  1.00  0.00    -0.026 A 
ATOM     23  C   UNL     1      10.975  12.825  11.808  1.00  0.00     0.007 A 
ATOM     24  C   UNL     1      13.026  13.268  13.022  1.00  0.00     0.007 A 
ATOM     25  C   UNL     1      11.575  13.283  10.631  1.00  0.00     0.021 A 
ATOM     26  C   UNL     1      13.622  13.726  11.843  1.00  0.00     0.021 A 
ATOM     27  C   UNL     1      12.898  13.732  10.647  1.00  0.00     0.041 A 
ATOM     28  Cl  UNL     1      13.647  14.309   9.170  1.00  0.00    -0.084 Cl
ENDBRANCH  15  22
ENDBRANCH  14  15
ENDBRANCH   8   9
ENDBRANCH   1   8
TORSDOF 9
ENDMDL
MODEL 2
REMARK VINA RESULT:    -8.217      0.233      1.338
REMARK INTER + INTRA:         -12.729
REMARK INTER:                 -12.288
REMARK INTRA:                  -0.441
REMARK UNBOUND:                -0.429
REMARK SMILES O=C(O)COCCN1CCN([C@H](c2ccccc2)c2ccc(Cl)cc2)CC1
REMARK SMILES IDX 6 1 5 2 4 3 2 4 1 5 3 6 7 8 8 9 9 10 27 11 10 12 26 13 11 14
REMARK SMILES IDX 12 15 13 16 14 17 18 18 15 19 17 20 16 21 19 22 20 23 25 24
REMARK SMILES IDX 21 25 24 26 22 27 23 28
REMARK H PARENT 3 7
REMARK Flexibility Score: inf
ROOT
ATOM      1  C   UNL     1       5.993  15.891  16.000  1.00  0.00     0.176 C 
ENDROOT
BRANCH   1   2
ATOM      2  O   UNL     1       4.652  15.880  15.543  1.00  0.00    -0.368 OA
BRANCH   2   3
ATOM      3  C   UNL     1       3.915  16.959  16.085  1.00  0.00     0.282 C 
BRANCH   3   4
ATOM      4  C   UNL     1       2.482  16.873  15.662  1.00  0.00     0.329 C 
ATOM      5  O   UNL     1       2.169  16.233  14.622  1.00  0.00    -0.250 OA
BRANCH   4   6
ATOM      6  O   UNL     1       1.494  17.482  16.429  1.00  0.00    -0.480 OA
ATOM      7  H   UNL     1       0.820  16.928  16.943  1.00  0.00     0.296 HD
ENDBRANCH   4   6
ENDBRANCH   3   4
ENDBRANCH   2   3
ENDBRANCH   1   2
BRANCH   1   8
ATOM      8  C   UNL     1       6.948  15.396  14.902  1.00  0.00     0.113 C 
BRANCH   8   9
ATOM      9  N   UNL     1       8.362  15.454  15.334  1.00  0.00    -0.299 NA
ATOM     10  C   UNL     1       9.290  15.259  14.192  1.00  0.00     0.100 C 
ATOM     11  C   UNL     1       8.626  14.520  16.457  1.00  0.00     0.100 C 
ATOM     12  C   UNL     1      10.668  14.765  14.657  1.00  0.00     0.101 C 
ATOM     13  C   UNL     1       9.273  13.212  15.981  1.00  0.00     0.101 C 
ATOM     14  N   UNL     1      10.601  13.449  15.353  1.00  0.00    -0.290 NA
BRANCH  14  15
ATOM     15  C   UNL     1      11.002  12.321  14.462  1.00  0.00     0.117 C 
BRANCH  15  16
ATOM     16  C   UNL     1      11.982  11.372  15.136  1.00  0.00    -0.026 A 
ATOM     17  C   UNL     1      12.887  11.834  16.111  1.00  0.00     0.006 A 
ATOM     18  C   UNL     1      12.027  10.019  14.752  1.00  0.00     0.006 A 
ATOM     19  C   UNL     1      13.800  10.956  16.700  1.00  0.00     0.000 A 
ATOM     20  C   UNL     1      12.943   9.146  15.344  1.00  0.00     0.000 A 
ATOM     21  C   UNL     1      13.828   9.612  16.319  1.00  0.00     0.000 A 
ENDBRANCH  15  16
BRANCH  15  22
ATOM     22  C   UNL     1      11.650  12.813  13.176  1.00  0.00    -0.026 A 
ATOM     23  C   UNL     1      12.998  13.217  13.144  1.00  0.00     0.007 A 
ATOM     24  C   UNL     1      10.913  12.805  11.980  1.00  0.00     0.007 A 
ATOM     25  C   UNL     1      13.584  13.630  11.943  1.00  0.00     0.021 A 
ATOM     26  C   UNL     1      11.502  13.217  10.781  1.00  0.00     0.021 A 
ATOM     27  C   UNL     1      12.837  13.632  10.762  1.00  0.00     0.041 A 
ATOM     28  Cl  UNL     1      13.575  14.148   9.257  1.00  0.00    -0.084 Cl
ENDBRANCH  15  22
ENDBRANCH  14  15
ENDBRANCH   8   9
ENDBRANCH   1   8
TORSDOF 9
ENDMDL
MODEL 3
REMARK VINA RESULT:    -8.203      6.287      9.049
REMARK INTER + INTRA:         -12.708
REMARK INTER:                 -12.415
REMARK INTRA:                  -0.293
REMARK UNBOUND:                -0.429
REMARK SMILES O=C(O)COCCN1CCN([C@H](c2ccccc2)c2ccc(Cl)cc2)CC1
REMARK SMILES IDX 6 1 5 2 4 3 2 4 1 5 3 6 7 8 8 9 9 10 27 11 10 12 26 13 11 14
REMARK SMILES IDX 12 15 13 16 14 17 18 18 15 19 17 20 16 21 19 22 20 23 25 24
REMARK SMILES IDX 21 25 24 26 22 27 23 28
REMARK H PARENT 3 7
REMARK Flexibility Score: inf
ROOT
ATOM      1  C   UNL     1      13.823   8.528  21.549  1.00  0.00     0.176 C 
ENDROOT
BRANCH   1   2
ATOM      2  O   UNL     1      13.497   7.772  22.703  1.00  0.00    -0.368 OA
BRANCH   2   3
ATOM      3  C   UNL     1      13.874   6.417  22.553  1.00  0.00     0.282 C 
BRANCH   3   4
ATOM      4  C   UNL     1      13.167   5.566  23.561  1.00  0.00     0.329 C 
ATOM      5  O   UNL     1      13.558   4.387  23.776  1.00  0.00    -0.250 OA
BRANCH   4   6
ATOM      6  O   UNL     1      12.092   6.085  24.275  1.00  0.00    -0.480 OA
ATOM      7  H   UNL     1      11.279   5.517  24.478  1.00  0.00     0.296 HD
ENDBRANCH   4   6
ENDBRANCH   3   4
ENDBRANCH   2   3
ENDBRANCH   1   2
BRANCH   1   8
ATOM      8  C   UNL     1      13.700   7.670  20.281  1.00  0.00     0.113 C 
BRANCH   8   9
ATOM      9  N   UNL     1      12.523   8.054  19.468  1.00  0.00    -0.299 NA
ATOM     10  C   UNL     1      12.786   7.891  18.016  1.00  0.00     0.100 C 
ATOM     11  C   UNL     1      12.041   9.413  19.819  1.00  0.00     0.100 C 
ATOM     12  C   UNL     1      11.855   8.771  17.169  1.00  0.00     0.101 C 
ATOM     13  C   UNL     1      12.535  10.475  18.826  1.00  0.00     0.101 C 
ATOM     14  N   UNL     1      12.026  10.225  17.450  1.00  0.00    -0.290 NA
BRANCH  14  15
ATOM     15  C   UNL     1      12.861  10.904  16.418  1.00  0.00     0.117 C 
BRANCH  15  16
ATOM     16  C   UNL     1      13.919  11.808  17.032  1.00  0.00    -0.026 A 
ATOM     17  C   UNL     1      13.782  13.210  17.003  1.00  0.00     0.006 A 
ATOM     18  C   UNL     1      15.080  11.249  17.597  1.00  0.00     0.006 A 
ATOM     19  C   UNL     1      14.776  14.029  17.546  1.00  0.00     0.000 A 
ATOM     20  C   UNL     1      16.071  12.073  18.137  1.00  0.00     0.000 A 
ATOM     21  C   UNL     1      15.919  13.461  18.114  1.00  0.00     0.000 A 
ENDBRANCH  15  16
BRANCH  15  22
ATOM     22  C   UNL     1      12.023  11.754  15.474  1.00  0.00    -0.026 A 
ATOM     23  C   UNL     1      10.823  12.354  15.900  1.00  0.00     0.007 A 
ATOM     24  C   UNL     1      12.482  12.002  14.169  1.00  0.00     0.007 A 
ATOM     25  C   UNL     1      10.087  13.162  15.028  1.00  0.00     0.021 A 
ATOM     26  C   UNL     1      11.745  12.811  13.300  1.00  0.00     0.021 A 
ATOM     27  C   UNL     1      10.545  13.390  13.728  1.00  0.00     0.041 A 
ATOM     28  Cl  UNL     1       9.622  14.406  12.636  1.00  0.00    -0.084 Cl
ENDBRANCH  15  22
ENDBRANCH  14  15
ENDBRANCH   8   9
ENDBRANCH   1   8
TORSDOF 9
ENDMDL
MODEL 4
REMARK VINA RESULT:    -8.110      3.723      4.721
REMARK INTER + INTRA:         -12.569
REMARK INTER:                 -12.045
REMARK INTRA:                  -0.524
REMARK UNBOUND:                -0.429
REMARK SMILES O=C(O)COCCN1CCN([C@H](c2ccccc2)c2ccc(Cl)cc2)CC1
REMARK SMILES IDX 6 1 5 2 4 3 2 4 1 5 3 6 7 8 8 9 9 10 27 11 10 12 26 13 11 14
REMARK SMILES IDX 12 15 13 16 14 17 18 18 15 19 17 20 16 21 19 22 20 23 25 24
REMARK SMILES IDX 21 25 24 26 22 27 23 28
REMARK H PARENT 3 7
REMARK Flexibility Score: inf
ROOT
ATOM      1  C   UNL     1       8.342  13.119  18.625  1.00  0.00     0.176 C 
ENDROOT
BRANCH   1   2
ATOM      2  O   UNL     1       8.302  12.179  19.685  1.00  0.00    -0.368 OA
BRANCH   2   3
ATOM      3  C   UNL     1       9.074  11.032  19.385  1.00  0.00     0.282 C 
BRANCH   3   4
ATOM      4  C   UNL     1       9.028  10.062  20.523  1.00  0.00     0.329 C 
ATOM      5  O   UNL     1      10.061   9.853  21.215  1.00  0.00    -0.250 OA
BRANCH   4   6
ATOM      6  O   UNL     1       7.839   9.409  20.830  1.00  0.00    -0.480 OA
ATOM      7  H   UNL     1       7.836   8.431  21.094  1.00  0.00     0.296 HD
ENDBRANCH   4   6
ENDBRANCH   3   4
ENDBRANCH   2   3
ENDBRANCH   1   2
BRANCH   1   8
ATOM      8  C   UNL     1       8.927  14.456  19.103  1.00  0.00     0.113 C 
BRANCH   8   9
ATOM      9  N   UNL     1       9.996  14.944  18.203  1.00  0.00    -0.299 NA
ATOM     10  C   UNL     1       9.620  14.789  16.775  1.00  0.00     0.100 C 
ATOM     11  C   UNL     1      11.304  14.320  18.525  1.00  0.00     0.100 C 
ATOM     12  C   UNL     1      10.856  14.748  15.863  1.00  0.00     0.101 C 
ATOM     13  C   UNL     1      11.636  13.153  17.584  1.00  0.00     0.101 C 
ATOM     14  N   UNL     1      11.757  13.601  16.170  1.00  0.00    -0.290 NA
BRANCH  14  15
ATOM     15  C   UNL     1      11.575  12.471  15.213  1.00  0.00     0.117 C 
BRANCH  15  16
ATOM     16  C   UNL     1      12.412  11.256  15.586  1.00  0.00    -0.026 A 
ATOM     17  C   UNL     1      12.086   9.974  15.101  1.00  0.00     0.006 A 
ATOM     18  C   UNL     1      13.501  11.395  16.465  1.00  0.00     0.006 A 
ATOM     19  C   UNL     1      12.848   8.863  15.474  1.00  0.00     0.000 A 
ATOM     20  C   UNL     1      14.258  10.281  16.836  1.00  0.00     0.000 A 
ATOM     21  C   UNL     1      13.933   9.016  16.340  1.00  0.00     0.000 A 
ENDBRANCH  15  16
BRANCH  15  22
ATOM     22  C   UNL     1      11.944  12.864  13.790  1.00  0.00    -0.026 A 
ATOM     23  C   UNL     1      11.042  12.687  12.724  1.00  0.00     0.007 A 
ATOM     24  C   UNL     1      13.185  13.475  13.538  1.00  0.00     0.007 A 
ATOM     25  C   UNL     1      11.389  13.089  11.430  1.00  0.00     0.021 A 
ATOM     26  C   UNL     1      13.527  13.877  12.244  1.00  0.00     0.021 A 
ATOM     27  C   UNL     1      12.630  13.682  11.188  1.00  0.00     0.041 A 
ATOM     28  Cl  UNL     1      13.062  14.188   9.565  1.00  0.00    -0.084 Cl
ENDBRANCH  15  22
ENDBRANCH  14  15
ENDBRANCH   8   9
ENDBRANCH   1   8
TORSDOF 9
ENDMDL
MODEL 5
REMARK VINA RESULT:    -8.026      5.131      6.928
REMARK INTER + INTRA:         -12.443
REMARK INTER:                 -11.762
REMARK INTRA:                  -0.681
REMARK UNBOUND:                -0.429
REMARK SMILES O=C(O)COCCN1CCN([C@H](c2ccccc2)c2ccc(Cl)cc2)CC1
REMARK SMILES IDX 6 1 5 2 4 3 2 4 1 5 3 6 7 8 8 9 9 10 27 11 10 12 26 13 11 14
REMARK SMILES IDX 12 15 13 16 14 17 18 18 15 19 17 20 16 21 19 22 20 23 25 24
REMARK SMILES IDX 21 25 24 26 22 27 23 28
REMARK H PARENT 3 7
REMARK Flexibility Score: inf
ROOT
ATOM      1  C   UNL     1      10.054   9.091  18.894  1.00  0.00     0.176 C 
ENDROOT
BRANCH   1   2
ATOM      2  O   UNL     1      11.379   8.712  18.564  1.00  0.00    -0.368 OA
BRANCH   2   3
ATOM      3  C   UNL     1      12.271   8.975  19.629  1.00  0.00     0.282 C 
BRANCH   3   4
ATOM      4  C   UNL     1      13.105   7.767  19.919  1.00  0.00     0.329 C 
ATOM      5  O   UNL     1      13.195   7.333  21.099  1.00  0.00    -0.250 OA
BRANCH   4   6
ATOM      6  O   UNL     1      13.760   7.111  18.883  1.00  0.00    -0.480 OA
ATOM      7  H   UNL     1      13.352   6.294  18.444  1.00  0.00     0.296 HD
ENDBRANCH   4   6
ENDBRANCH   3   4
ENDBRANCH   2   3
ENDBRANCH   1   2
BRANCH   1   8
ATOM      8  C   UNL     1      10.053  10.285  19.861  1.00  0.00     0.113 C 
BRANCH   8   9
ATOM      9  N   UNL     1       9.772  11.560  19.163  1.00  0.00    -0.299 NA
ATOM     10  C   UNL     1       9.289  11.329  17.778  1.00  0.00     0.100 C 
ATOM     11  C   UNL     1      10.935  12.480  19.223  1.00  0.00     0.100 C 
ATOM     12  C   UNL     1       9.524  12.555  16.883  1.00  0.00     0.101 C 
ATOM     13  C   UNL     1      11.762  12.450  17.929  1.00  0.00     0.101 C 
ATOM     14  N   UNL     1      10.968  12.904  16.755  1.00  0.00    -0.290 NA
BRANCH  14  15
ATOM     15  C   UNL     1      11.551  12.421  15.471  1.00  0.00     0.117 C 
BRANCH  15  16
ATOM     16  C   UNL     1      12.378  11.156  15.650  1.00  0.00    -0.026 A 
ATOM     17  C   UNL     1      11.969   9.935  15.079  1.00  0.00     0.006 A 
ATOM     18  C   UNL     1      13.544  11.183  16.435  1.00  0.00     0.006 A 
ATOM     19  C   UNL     1      12.724   8.775  15.276  1.00  0.00     0.000 A 
ATOM     20  C   UNL     1      14.295  10.020  16.629  1.00  0.00     0.000 A 
ATOM     21  C   UNL     1      13.886   8.818  16.049  1.00  0.00     0.000 A 
ENDBRANCH  15  16
BRANCH  15  22
ATOM     22  C   UNL     1      12.447  13.466  14.822  1.00  0.00    -0.026 A 
ATOM     23  C   UNL     1      12.808  13.381  13.464  1.00  0.00     0.007 A 
ATOM     24  C   UNL     1      12.875  14.576  15.571  1.00  0.00     0.007 A 
ATOM     25  C   UNL     1      13.601  14.372  12.879  1.00  0.00     0.021 A 
ATOM     26  C   UNL     1      13.667  15.565  14.982  1.00  0.00     0.021 A 
ATOM     27  C   UNL     1      14.033  15.463  13.637  1.00  0.00     0.041 A 
ATOM     28  Cl  UNL     1      15.027  16.706  12.900  1.00  0.00    -0.084 Cl
ENDBRANCH  15  22
ENDBRANCH  14  15
ENDBRANCH   8   9
ENDBRANCH   1   8
TORSDOF 9
ENDMDL
MODEL 6
REMARK VINA RESULT:    -8.020      6.142      8.499
REMARK INTER + INTRA:         -12.434
REMARK INTER:                 -12.081
REMARK INTRA:                  -0.353
REMARK UNBOUND:                -0.429
REMARK SMILES O=C(O)COCCN1CCN([C@H](c2ccccc2)c2ccc(Cl)cc2)CC1
REMARK SMILES IDX 6 1 5 2 4 3 2 4 1 5 3 6 7 8 8 9 9 10 27 11 10 12 26 13 11 14
REMARK SMILES IDX 12 15 13 16 14 17 18 18 15 19 17 20 16 21 19 22 20 23 25 24
REMARK SMILES IDX 21 25 24 26 22 27 23 28
REMARK H PARENT 3 7
REMARK Flexibility Score: inf
ROOT
ATOM      1  C   UNL     1      13.710   7.792  18.977  1.00  0.00     0.176 C 
ENDROOT
BRANCH   1   2
ATOM      2  O   UNL     1      14.353   7.298  20.139  1.00  0.00    -0.368 OA
BRANCH   2   3
ATOM      3  C   UNL     1      13.722   7.765  21.315  1.00  0.00     0.282 C 
BRANCH   3   4
ATOM      4  C   UNL     1      14.075   6.890  22.477  1.00  0.00     0.329 C 
ATOM      5  O   UNL     1      13.269   6.766  23.439  1.00  0.00    -0.250 OA
BRANCH   4   6
ATOM      6  O   UNL     1      15.281   6.198  22.484  1.00  0.00    -0.480 OA
ATOM      7  H   UNL     1      16.102   6.589  22.931  1.00  0.00     0.296 HD
ENDBRANCH   4   6
ENDBRANCH   3   4
ENDBRANCH   2   3
ENDBRANCH   1   2
BRANCH   1   8
ATOM      8  C   UNL     1      12.186   7.830  19.170  1.00  0.00     0.113 C 
BRANCH   8   9
ATOM      9  N   UNL     1      11.470   7.959  17.882  1.00  0.00    -0.299 NA
ATOM     10  C   UNL     1      12.408   7.942  16.731  1.00  0.00     0.100 C 
ATOM     11  C   UNL     1      10.572   9.141  17.876  1.00  0.00     0.100 C 
ATOM     12  C   UNL     1      11.798   8.613  15.491  1.00  0.00     0.101 C 
ATOM     13  C   UNL     1      11.201  10.342  17.155  1.00  0.00     0.101 C 
ATOM     14  N   UNL     1      11.466  10.048  15.720  1.00  0.00    -0.290 NA
BRANCH  14  15
ATOM     15  C   UNL     1      12.496  10.962  15.148  1.00  0.00     0.117 C 
BRANCH  15  16
ATOM     16  C   UNL     1      13.379  11.583  16.220  1.00  0.00    -0.026 A 
ATOM     17  C   UNL     1      13.310  12.960  16.509  1.00  0.00     0.006 A 
ATOM     18  C   UNL     1      14.316  10.789  16.906  1.00  0.00     0.006 A 
ATOM     19  C   UNL     1      14.147  13.522  17.477  1.00  0.00     0.000 A 
ATOM     20  C   UNL     1      15.151  11.357  17.873  1.00  0.00     0.000 A 
ATOM     21  C   UNL     1      15.066  12.721  18.160  1.00  0.00     0.000 A 
ENDBRANCH  15  16
BRANCH  15  22
ATOM     22  C   UNL     1      11.872  12.099  14.352  1.00  0.00    -0.026 A 
ATOM     23  C   UNL     1      12.482  12.598  13.186  1.00  0.00     0.007 A 
ATOM     24  C   UNL     1      10.629  12.623  14.748  1.00  0.00     0.007 A 
ATOM     25  C   UNL     1      11.872  13.618  12.449  1.00  0.00     0.021 A 
ATOM     26  C   UNL     1      10.022  13.642  14.009  1.00  0.00     0.021 A 
ATOM     27  C   UNL     1      10.644  14.142  12.861  1.00  0.00     0.041 A 
ATOM     28  Cl  UNL     1       9.879  15.420  11.934  1.00  0.00    -0.084 Cl
ENDBRANCH  15  22
ENDBRANCH  14  15
ENDBRANCH   8   9
ENDBRANCH   1   8
TORSDOF 9
ENDMDL
MODEL 7
REMARK VINA RESULT:    -7.972      6.446      9.300
REMARK INTER + INTRA:         -12.363
REMARK INTER:                 -11.751
REMARK INTRA:                  -0.612
REMARK UNBOUND:                -0.429
REMARK SMILES O=C(O)COCCN1CCN([C@H](c2ccccc2)c2ccc(Cl)cc2)CC1
REMARK SMILES IDX 6 1 5 2 4 3 2 4 1 5 3 6 7 8 8 9 9 10 27 11 10 12 26 13 11 14
REMARK SMILES IDX 12 15 13 16 14 17 18 18 15 19 17 20 16 21 19 22 20 23 25 24
REMARK SMILES IDX 21 25 24 26 22 27 23 28
REMARK H PARENT 3 7
REMARK Flexibility Score: inf
ROOT
ATOM      1  C   UNL     1      14.094   8.448  21.413  1.00  0.00     0.176 C 
ENDROOT
BRANCH   1   2
ATOM      2  O   UNL     1      14.233   7.792  22.662  1.00  0.00    -0.368 OA
BRANCH   2   3
ATOM      3  C   UNL     1      14.219   6.386  22.509  1.00  0.00     0.282 C 
BRANCH   3   4
ATOM      4  C   UNL     1      13.159   5.779  23.373  1.00  0.00     0.329 C 
ATOM      5  O   UNL     1      12.480   6.511  24.143  1.00  0.00    -0.250 OA
BRANCH   4   6
ATOM      6  O   UNL     1      12.910   4.413  23.310  1.00  0.00    -0.480 OA
ATOM      7  H   UNL     1      12.475   4.001  22.493  1.00  0.00     0.296 HD
ENDBRANCH   4   6
ENDBRANCH   3   4
ENDBRANCH   2   3
ENDBRANCH   1   2
BRANCH   1   8
ATOM      8  C   UNL     1      13.457   7.514  20.373  1.00  0.00     0.113 C 
BRANCH   8   9
ATOM      9  N   UNL     1      13.653   8.010  18.993  1.00  0.00    -0.299 NA
ATOM     10  C   UNL     1      13.897   9.474  18.968  1.00  0.00     0.100 C 
ATOM     11  C   UNL     1      12.538   7.597  18.104  1.00  0.00     0.100 C 
ATOM     12  C   UNL     1      13.551  10.085  17.602  1.00  0.00     0.101 C 
ATOM     13  C   UNL     1      11.511   8.720  17.903  1.00  0.00     0.101 C 
ATOM     14  N   UNL     1      12.115   9.909  17.242  1.00  0.00    -0.290 NA
BRANCH  14  15
ATOM     15  C   UNL     1      11.318  11.145  17.489  1.00  0.00     0.117 C 
BRANCH  15  16
ATOM     16  C   UNL     1       9.999  10.854  18.190  1.00  0.00    -0.026 A 
ATOM     17  C   UNL     1       8.867  10.438  17.463  1.00  0.00     0.006 A 
ATOM     18  C   UNL     1       9.884  11.046  19.579  1.00  0.00     0.006 A 
ATOM     19  C   UNL     1       7.654  10.201  18.117  1.00  0.00     0.000 A 
ATOM     20  C   UNL     1       8.669  10.809  20.228  1.00  0.00     0.000 A 
ATOM     21  C   UNL     1       7.556  10.385  19.499  1.00  0.00     0.000 A 
ENDBRANCH  15  16
BRANCH  15  22
ATOM     22  C   UNL     1      10.997  11.884  16.198  1.00  0.00    -0.026 A 
ATOM     23  C   UNL     1      10.383  13.151  16.212  1.00  0.00     0.007 A 
ATOM     24  C   UNL     1      11.376  11.325  14.965  1.00  0.00     0.007 A 
ATOM     25  C   UNL     1      10.131  13.829  15.015  1.00  0.00     0.021 A 
ATOM     26  C   UNL     1      11.123  12.006  13.771  1.00  0.00     0.021 A 
ATOM     27  C   UNL     1      10.499  13.257  13.794  1.00  0.00     0.041 A 
ATOM     28  Cl  UNL     1      10.184  14.110  12.295  1.00  0.00    -0.084 Cl
ENDBRANCH  15  22
ENDBRANCH  14  15
ENDBRANCH   8   9
ENDBRANCH   1   8
TORSDOF 9
ENDMDL
MODEL 8
REMARK VINA RESULT:    -7.968      7.700     10.048
REMARK INTER + INTRA:         -12.356
REMARK INTER:                 -11.750
REMARK INTRA:                  -0.606
REMARK UNBOUND:                -0.429
REMARK SMILES O=C(O)COCCN1CCN([C@H](c2ccccc2)c2ccc(Cl)cc2)CC1
REMARK SMILES IDX 6 1 5 2 4 3 2 4 1 5 3 6 7 8 8 9 9 10 27 11 10 12 26 13 11 14
REMARK SMILES IDX 12 15 13 16 14 17 18 18 15 19 17 20 16 21 19 22 20 23 25 24
REMARK SMILES IDX 21 25 24 26 22 27 23 28
REMARK H PARENT 3 7
REMARK Flexibility Score: inf
ROOT
ATOM      1  C   UNL     1      13.598   8.761  22.590  1.00  0.00     0.176 C 
ENDROOT
BRANCH   1   2
ATOM      2  O   UNL     1      13.264   7.568  23.278  1.00  0.00    -0.368 OA
BRANCH   2   3
ATOM      3  C   UNL     1      13.746   6.428  22.594  1.00  0.00     0.282 C 
BRANCH   3   4
ATOM      4  C   UNL     1      13.305   5.179  23.291  1.00  0.00     0.329 C 
ATOM      5  O   UNL     1      12.106   4.798  23.202  1.00  0.00    -0.250 OA
BRANCH   4   6
ATOM      6  O   UNL     1      14.223   4.428  24.018  1.00  0.00    -0.480 OA
ATOM      7  H   UNL     1      14.554   4.744  24.922  1.00  0.00     0.296 HD
ENDBRANCH   4   6
ENDBRANCH   3   4
ENDBRANCH   2   3
ENDBRANCH   1   2
BRANCH   1   8
ATOM      8  C   UNL     1      13.098   9.993  23.359  1.00  0.00     0.113 C 
BRANCH   8   9
ATOM      9  N   UNL     1      12.800  11.125  22.453  1.00  0.00    -0.299 NA
ATOM     10  C   UNL     1      12.751  10.692  21.034  1.00  0.00     0.100 C 
ATOM     11  C   UNL     1      13.731  12.260  22.678  1.00  0.00     0.100 C 
ATOM     12  C   UNL     1      13.003  11.863  20.073  1.00  0.00     0.101 C 
ATOM     13  C   UNL     1      14.865  12.290  21.643  1.00  0.00     0.101 C 
ATOM     14  N   UNL     1      14.347  12.480  20.261  1.00  0.00    -0.290 NA
BRANCH  14  15
ATOM     15  C   UNL     1      15.325  12.020  19.234  1.00  0.00     0.117 C 
BRANCH  15  16
ATOM     16  C   UNL     1      16.148  13.166  18.663  1.00  0.00    -0.026 A 
ATOM     17  C   UNL     1      17.354  12.922  17.977  1.00  0.00     0.006 A 
ATOM     18  C   UNL     1      15.733  14.495  18.859  1.00  0.00     0.006 A 
ATOM     19  C   UNL     1      18.113  13.986  17.483  1.00  0.00     0.000 A 
ATOM     20  C   UNL     1      16.496  15.555  18.364  1.00  0.00     0.000 A 
ATOM     21  C   UNL     1      17.684  15.302  17.674  1.00  0.00     0.000 A 
ENDBRANCH  15  16
BRANCH  15  22
ATOM     22  C   UNL     1      14.642  11.320  18.068  1.00  0.00    -0.026 A 
ATOM     23  C   UNL     1      14.711   9.923  17.910  1.00  0.00     0.007 A 
ATOM     24  C   UNL     1      13.872  12.071  17.163  1.00  0.00     0.007 A 
ATOM     25  C   UNL     1      14.045   9.297  16.852  1.00  0.00     0.021 A 
ATOM     26  C   UNL     1      13.206  11.441  16.107  1.00  0.00     0.021 A 
ATOM     27  C   UNL     1      13.294  10.055  15.949  1.00  0.00     0.041 A 
ATOM     28  Cl  UNL     1      12.456   9.267  14.624  1.00  0.00    -0.084 Cl
ENDBRANCH  15  22
ENDBRANCH  14  15
ENDBRANCH   8   9
ENDBRANCH   1   8
TORSDOF 9
ENDMDL
MODEL 9
REMARK VINA RESULT:    -7.962      6.176      8.534
REMARK INTER + INTRA:         -12.348
REMARK INTER:                 -11.952
REMARK INTRA:                  -0.397
REMARK UNBOUND:                -0.429
REMARK SMILES O=C(O)COCCN1CCN([C@H](c2ccccc2)c2ccc(Cl)cc2)CC1
REMARK SMILES IDX 6 1 5 2 4 3 2 4 1 5 3 6 7 8 8 9 9 10 27 11 10 12 26 13 11 14
REMARK SMILES IDX 12 15 13 16 14 17 18 18 15 19 17 20 16 21 19 22 20 23 25 24
REMARK SMILES IDX 21 25 24 26 22 27 23 28
REMARK H PARENT 3 7
REMARK Flexibility Score: inf
ROOT
ATOM      1  C   UNL     1      13.098   9.780  22.229  1.00  0.00     0.176 C 
ENDROOT
BRANCH   1   2
ATOM      2  O   UNL     1      13.560   9.274  23.470  1.00  0.00    -0.368 OA
BRANCH   2   3
ATOM      3  C   UNL     1      12.557   8.522  24.125  1.00  0.00     0.282 C 
BRANCH   3   4
ATOM      4  C   UNL     1      12.384   9.001  25.532  1.00  0.00     0.329 C 
ATOM      5  O   UNL     1      13.121   9.921  25.980  1.00  0.00    -0.250 OA
BRANCH   4   6
ATOM      6  O   UNL     1      11.394   8.447  26.337  1.00  0.00    -0.480 OA
ATOM      7  H   UNL     1      11.246   7.446  26.365  1.00  0.00     0.296 HD
ENDBRANCH   4   6
ENDBRANCH   3   4
ENDBRANCH   2   3
ENDBRANCH   1   2
BRANCH   1   8
ATOM      8  C   UNL     1      13.295   8.745  21.111  1.00  0.00     0.113 C 
BRANCH   8   9
ATOM      9  N   UNL     1      12.199   8.791  20.117  1.00  0.00    -0.299 NA
ATOM     10  C   UNL     1      12.651   8.319  18.784  1.00  0.00     0.100 C 
ATOM     11  C   UNL     1      11.566  10.133  20.070  1.00  0.00     0.100 C 
ATOM     12  C   UNL     1      11.760   8.864  17.657  1.00  0.00     0.101 C 
ATOM     13  C   UNL     1      12.087  10.977  18.898  1.00  0.00     0.101 C 
ATOM     14  N   UNL     1      11.773  10.353  17.584  1.00  0.00    -0.290 NA
BRANCH  14  15
ATOM     15  C   UNL     1      12.668  10.855  16.503  1.00  0.00     0.117 C 
BRANCH  15  16
ATOM     16  C   UNL     1      13.850  11.643  17.049  1.00  0.00    -0.026 A 
ATOM     17  C   UNL     1      14.945  10.989  17.646  1.00  0.00     0.006 A 
ATOM     18  C   UNL     1      13.838  13.049  17.005  1.00  0.00     0.006 A 
ATOM     19  C   UNL     1      16.010  11.728  18.169  1.00  0.00     0.000 A 
ATOM     20  C   UNL     1      14.905  13.783  17.530  1.00  0.00     0.000 A 
ATOM     21  C   UNL     1      15.991  13.124  18.110  1.00  0.00     0.000 A 
ENDBRANCH  15  16
BRANCH  15  22
ATOM     22  C   UNL     1      11.931  11.755  15.523  1.00  0.00    -0.026 A 
ATOM     23  C   UNL     1      12.345  11.874  14.182  1.00  0.00     0.007 A 
ATOM     24  C   UNL     1      10.773  12.435  15.940  1.00  0.00     0.007 A 
ATOM     25  C   UNL     1      11.630  12.678  13.289  1.00  0.00     0.021 A 
ATOM     26  C   UNL     1      10.060  13.237  15.044  1.00  0.00     0.021 A 
ATOM     27  C   UNL     1      10.489  13.361  13.719  1.00  0.00     0.041 A 
ATOM     28  Cl  UNL     1       9.593  14.367  12.596  1.00  0.00    -0.084 Cl
ENDBRANCH  15  22
ENDBRANCH  14  15
ENDBRANCH   8   9
ENDBRANCH   1   8
TORSDOF 9
ENDMDL
MODEL 10
REMARK VINA RESULT:    -7.906      1.604      2.198
REMARK INTER + INTRA:         -12.264
REMARK INTER:                 -11.481
REMARK INTRA:                  -0.783
REMARK UNBOUND:                -0.429
REMARK SMILES O=C(O)COCCN1CCN([C@H](c2ccccc2)c2ccc(Cl)cc2)CC1
REMARK SMILES IDX 6 1 5 2 4 3 2 4 1 5 3 6 7 8 8 9 9 10 27 11 10 12 26 13 11 14
REMARK SMILES IDX 12 15 13 16 14 17 18 18 15 19 17 20 16 21 19 22 20 23 25 24
REMARK SMILES IDX 21 25 24 26 22 27 23 28
REMARK H PARENT 3 7
REMARK Flexibility Score: inf
ROOT
ATOM      1  C   UNL     1       6.071  16.295  15.464  1.00  0.00     0.176 C 
ENDROOT
BRANCH   1   2
ATOM      2  O   UNL     1       5.540  16.702  14.214  1.00  0.00    -0.368 OA
BRANCH   2   3
ATOM      3  C   UNL     1       6.471  17.481  13.489  1.00  0.00     0.282 C 
BRANCH   3   4
ATOM      4  C   UNL     1       6.529  17.029  12.064  1.00  0.00     0.329 C 
ATOM      5  O   UNL     1       6.517  15.798  11.793  1.00  0.00    -0.250 OA
BRANCH   4   6
ATOM      6  O   UNL     1       6.574  17.968  11.039  1.00  0.00    -0.480 OA
ATOM      7  H   UNL     1       6.927  18.903  11.205  1.00  0.00     0.296 HD
ENDBRANCH   4   6
ENDBRANCH   3   4
ENDBRANCH   2   3
ENDBRANCH   1   2
BRANCH   1   8
ATOM      8  C   UNL     1       6.859  14.984  15.322  1.00  0.00     0.113 C 
BRANCH   8   9
ATOM      9  N   UNL     1       8.308  15.184  15.548  1.00  0.00    -0.299 NA
ATOM     10  C   UNL     1       9.085  15.012  14.294  1.00  0.00     0.100 C 
ATOM     11  C   UNL     1       8.807  14.332  16.656  1.00  0.00     0.100 C 
ATOM     12  C   UNL     1      10.553  14.661  14.579  1.00  0.00     0.101 C 
ATOM     13  C   UNL     1       9.499  13.062  16.143  1.00  0.00     0.101 C 
ATOM     14  N   UNL     1      10.701  13.379  15.326  1.00  0.00    -0.290 NA
BRANCH  14  15
ATOM     15  C   UNL     1      11.078  12.248  14.430  1.00  0.00     0.117 C 
BRANCH  15  16
ATOM     16  C   UNL     1      12.071  11.298  15.083  1.00  0.00    -0.026 A 
ATOM     17  C   UNL     1      12.070   9.923  14.776  1.00  0.00     0.006 A 
ATOM     18  C   UNL     1      12.977  11.780  16.045  1.00  0.00     0.006 A 
ATOM     19  C   UNL     1      12.970   9.058  15.405  1.00  0.00     0.000 A 
ATOM     20  C   UNL     1      13.874  10.910  16.672  1.00  0.00     0.000 A 
ATOM     21  C   UNL     1      13.872   9.551  16.351  1.00  0.00     0.000 A 
ENDBRANCH  15  16
BRANCH  15  22
ATOM     22  C   UNL     1      11.696  12.733  13.127  1.00  0.00    -0.026 A 
ATOM     23  C   UNL     1      10.953  12.766  11.931  1.00  0.00     0.007 A 
ATOM     24  C   UNL     1      13.015  13.219  13.123  1.00  0.00     0.007 A 
ATOM     25  C   UNL     1      11.530  13.251  10.753  1.00  0.00     0.021 A 
ATOM     26  C   UNL     1      13.588  13.704  11.943  1.00  0.00     0.021 A 
ATOM     27  C   UNL     1      12.847  13.718  10.757  1.00  0.00     0.041 A 
ATOM     28  Cl  UNL     1      13.567  14.328   9.279  1.00  0.00    -0.084 Cl
ENDBRANCH  15  22
ENDBRANCH  14  15
ENDBRANCH   8   9
ENDBRANCH   1   8
TORSDOF 9
ENDMDL
MODEL 11
REMARK VINA RESULT:    -7.895      6.252      8.901
REMARK INTER + INTRA:         -12.248
REMARK INTER:                 -11.592
REMARK INTRA:                  -0.655
REMARK UNBOUND:                -0.429
REMARK SMILES O=C(O)COCCN1CCN([C@H](c2ccccc2)c2ccc(Cl)cc2)CC1
REMARK SMILES IDX 6 1 5 2 4 3 2 4 1 5 3 6 7 8 8 9 9 10 27 11 10 12 26 13 11 14
REMARK SMILES IDX 12 15 13 16 14 17 18 18 15 19 17 20 16 21 19 22 20 23 25 24
REMARK SMILES IDX 21 25 24 26 22 27 23 28
REMARK H PARENT 3 7
REMARK Flexibility Score: inf
ROOT
ATOM      1  C   UNL     1      14.744   7.525  21.294  1.00  0.00     0.176 C 
ENDROOT
BRANCH   1   2
ATOM      2  O   UNL     1      14.657   8.289  22.485  1.00  0.00    -0.368 OA
BRANCH   2   3
ATOM      3  C   UNL     1      13.475   9.064  22.514  1.00  0.00     0.282 C 
BRANCH   3   4
ATOM      4  C   UNL     1      12.889   9.068  23.891  1.00  0.00     0.329 C 
ATOM      5  O   UNL     1      13.149  10.012  24.684  1.00  0.00    -0.250 OA
BRANCH   4   6
ATOM      6  O   UNL     1      12.040   8.039  24.286  1.00  0.00    -0.480 OA
ATOM      7  H   UNL     1      11.856   7.864  25.267  1.00  0.00     0.296 HD
ENDBRANCH   4   6
ENDBRANCH   3   4
ENDBRANCH   2   3
ENDBRANCH   1   2
BRANCH   1   8
ATOM      8  C   UNL     1      13.406   7.534  20.540  1.00  0.00     0.113 C 
BRANCH   8   9
ATOM      9  N   UNL     1      13.574   7.918  19.121  1.00  0.00    -0.299 NA
ATOM     10  C   UNL     1      13.912   9.357  18.981  1.00  0.00     0.100 C 
ATOM     11  C   UNL     1      12.398   7.520  18.308  1.00  0.00     0.100 C 
ATOM     12  C   UNL     1      13.548   9.893  17.588  1.00  0.00     0.101 C 
ATOM     13  C   UNL     1      11.439   8.694  18.065  1.00  0.00     0.101 C 
ATOM     14  N   UNL     1      12.090   9.790  17.297  1.00  0.00    -0.290 NA
BRANCH  14  15
ATOM     15  C   UNL     1      11.386  11.092  17.484  1.00  0.00     0.117 C 
BRANCH  15  16
ATOM     16  C   UNL     1      10.036  10.928  18.166  1.00  0.00    -0.026 A 
ATOM     17  C   UNL     1       9.838  11.352  19.494  1.00  0.00     0.006 A 
ATOM     18  C   UNL     1       8.976  10.300  17.486  1.00  0.00     0.006 A 
ATOM     19  C   UNL     1       8.600  11.169  20.118  1.00  0.00     0.000 A 
ATOM     20  C   UNL     1       7.741  10.119  18.115  1.00  0.00     0.000 A 
ATOM     21  C   UNL     1       7.552  10.555  19.428  1.00  0.00     0.000 A 
ENDBRANCH  15  16
BRANCH  15  22
ATOM     22  C   UNL     1      11.148  11.806  16.161  1.00  0.00    -0.026 A 
ATOM     23  C   UNL     1      11.455  11.193  14.932  1.00  0.00     0.007 A 
ATOM     24  C   UNL     1      10.548  13.077  16.157  1.00  0.00     0.007 A 
ATOM     25  C   UNL     1      11.193  11.852  13.727  1.00  0.00     0.021 A 
ATOM     26  C   UNL     1      10.287  13.733  14.950  1.00  0.00     0.021 A 
ATOM     27  C   UNL     1      10.611  13.122  13.735  1.00  0.00     0.041 A 
ATOM     28  Cl  UNL     1      10.281  13.947  12.222  1.00  0.00    -0.084 Cl
ENDBRANCH  15  22
ENDBRANCH  14  15
ENDBRANCH   8   9
ENDBRANCH   1   8
TORSDOF 9
ENDMDL
MODEL 12
REMARK VINA RESULT:    -7.853      5.848      7.748
REMARK INTER + INTRA:         -12.185
REMARK INTER:                 -11.640
REMARK INTRA:                  -0.545
REMARK UNBOUND:                -0.429
REMARK SMILES O=C(O)COCCN1CCN([C@H](c2ccccc2)c2ccc(Cl)cc2)CC1
REMARK SMILES IDX 6 1 5 2 4 3 2 4 1 5 3 6 7 8 8 9 9 10 27 11 10 12 26 13 11 14
REMARK SMILES IDX 12 15 13 16 14 17 18 18 15 19 17 20 16 21 19 22 20 23 25 24
REMARK SMILES IDX 21 25 24 26 22 27 23 28
REMARK H PARENT 3 7
REMARK Flexibility Score: inf
ROOT
ATOM      1  C   UNL     1       9.586   9.920  18.222  1.00  0.00     0.176 C 
ENDROOT
BRANCH   1   2
ATOM      2  O   UNL     1       9.785   8.661  17.601  1.00  0.00    -0.368 OA
BRANCH   2   3
ATOM      3  C   UNL     1      11.062   8.134  17.903  1.00  0.00     0.282 C 
BRANCH   3   4
ATOM      4  C   UNL     1      11.470   7.134  16.866  1.00  0.00     0.329 C 
ATOM      5  O   UNL     1      12.115   7.509  15.850  1.00  0.00    -0.250 OA
BRANCH   4   6
ATOM      6  O   UNL     1      11.156   5.790  17.037  1.00  0.00    -0.480 OA
ATOM      7  H   UNL     1      10.723   5.259  16.291  1.00  0.00     0.296 HD
ENDBRANCH   4   6
ENDBRANCH   3   4
ENDBRANCH   2   3
ENDBRANCH   1   2
BRANCH   1   8
ATOM      8  C   UNL     1       9.688   9.797  19.750  1.00  0.00     0.113 C 
BRANCH   8   9
ATOM      9  N   UNL     1      10.588  10.820  20.326  1.00  0.00    -0.299 NA
ATOM     10  C   UNL     1      11.138  11.717  19.279  1.00  0.00     0.100 C 
ATOM     11  C   UNL     1      11.644  10.202  21.168  1.00  0.00     0.100 C 
ATOM     12  C   UNL     1      12.445  12.385  19.731  1.00  0.00     0.101 C 
ATOM     13  C   UNL     1      12.977  10.070  20.418  1.00  0.00     0.101 C 
ATOM     14  N   UNL     1      13.523  11.397  20.023  1.00  0.00    -0.290 NA
BRANCH  14  15
ATOM     15  C   UNL     1      14.500  11.283  18.902  1.00  0.00     0.117 C 
BRANCH  15  16
ATOM     16  C   UNL     1      15.710  12.186  19.094  1.00  0.00    -0.026 A 
ATOM     17  C   UNL     1      15.869  12.946  20.269  1.00  0.00     0.006 A 
ATOM     18  C   UNL     1      16.665  12.308  18.069  1.00  0.00     0.006 A 
ATOM     19  C   UNL     1      16.970  13.792  20.419  1.00  0.00     0.000 A 
ATOM     20  C   UNL     1      17.765  13.157  18.224  1.00  0.00     0.000 A 
ATOM     21  C   UNL     1      17.919  13.897  19.399  1.00  0.00     0.000 A 
ENDBRANCH  15  16
BRANCH  15  22
ATOM     22  C   UNL     1      13.873  11.635  17.561  1.00  0.00    -0.026 A 
ATOM     23  C   UNL     1      13.765  12.972  17.131  1.00  0.00     0.007 A 
ATOM     24  C   UNL     1      13.450  10.607  16.700  1.00  0.00     0.007 A 
ATOM     25  C   UNL     1      13.220  13.271  15.879  1.00  0.00     0.021 A 
ATOM     26  C   UNL     1      12.907  10.910  15.448  1.00  0.00     0.021 A 
ATOM     27  C   UNL     1      12.789  12.242  15.038  1.00  0.00     0.041 A 
ATOM     28  Cl  UNL     1      12.107  12.619  13.466  1.00  0.00    -0.084 Cl
ENDBRANCH  15  22
ENDBRANCH  14  15
ENDBRANCH   8   9
ENDBRANCH   1   8
TORSDOF 9
ENDMDL
MODEL 13
REMARK VINA RESULT:    -7.825      4.638      6.436
REMARK INTER + INTRA:         -12.142
REMARK INTER:                 -11.755
REMARK INTRA:                  -0.387
REMARK UNBOUND:                -0.429
REMARK SMILES O=C(O)COCCN1CCN([C@H](c2ccccc2)c2ccc(Cl)cc2)CC1
REMARK SMILES IDX 6 1 5 2 4 3 2 4 1 5 3 6 7 8 8 9 9 10 27 11 10 12 26 13 11 14
REMARK SMILES IDX 12 15 13 16 14 17 18 18 15 19 17 20 16 21 19 22 20 23 25 24
REMARK SMILES IDX 21 25 24 26 22 27 23 28
REMARK H PARENT 3 7
REMARK Flexibility Score: inf
ROOT
ATOM      1  C   UNL     1      10.864  12.111  19.136  1.00  0.00     0.176 C 
ENDROOT
BRANCH   1   2
ATOM      2  O   UNL     1      10.687  11.018  20.021  1.00  0.00    -0.368 OA
BRANCH   2   3
ATOM      3  C   UNL     1      11.059   9.797  19.412  1.00  0.00     0.282 C 
BRANCH   3   4
ATOM      4  C   UNL     1       9.902   9.220  18.657  1.00  0.00     0.329 C 
ATOM      5  O   UNL     1       8.728   9.383  19.084  1.00  0.00    -0.250 OA
BRANCH   4   6
ATOM      6  O   UNL     1      10.124   8.522  17.475  1.00  0.00    -0.480 OA
ATOM      7  H   UNL     1       9.898   7.538  17.401  1.00  0.00     0.296 HD
ENDBRANCH   4   6
ENDBRANCH   3   4
ENDBRANCH   2   3
ENDBRANCH   1   2
BRANCH   1   8
ATOM      8  C   UNL     1       9.618  13.010  19.121  1.00  0.00     0.113 C 
BRANCH   8   9
ATOM      9  N   UNL     1       9.282  13.465  17.753  1.00  0.00    -0.299 NA
ATOM     10  C   UNL     1       9.669  12.458  16.733  1.00  0.00     0.100 C 
ATOM     11  C   UNL     1       9.842  14.811  17.476  1.00  0.00     0.100 C 
ATOM     12  C   UNL     1       9.856  13.096  15.348  1.00  0.00     0.101 C 
ATOM     13  C   UNL     1      11.146  14.740  16.669  1.00  0.00     0.101 C 
ATOM     14  N   UNL     1      10.936  14.124  15.332  1.00  0.00    -0.290 NA
BRANCH  14  15
ATOM     15  C   UNL     1      12.207  13.595  14.758  1.00  0.00     0.117 C 
BRANCH  15  16
ATOM     16  C   UNL     1      12.174  13.533  13.238  1.00  0.00    -0.026 A 
ATOM     17  C   UNL     1      10.958  13.387  12.543  1.00  0.00     0.006 A 
ATOM     18  C   UNL     1      13.375  13.571  12.507  1.00  0.00     0.006 A 
ATOM     19  C   UNL     1      10.946  13.303  11.148  1.00  0.00     0.000 A 
ATOM     20  C   UNL     1      13.358  13.485  11.112  1.00  0.00     0.000 A 
ATOM     21  C   UNL     1      12.145  13.353  10.433  1.00  0.00     0.000 A 
ENDBRANCH  15  16
BRANCH  15  22
ATOM     22  C   UNL     1      12.524  12.197  15.267  1.00  0.00    -0.026 A 
ATOM     23  C   UNL     1      12.036  11.050  14.612  1.00  0.00     0.007 A 
ATOM     24  C   UNL     1      13.374  12.038  16.376  1.00  0.00     0.007 A 
ATOM     25  C   UNL     1      12.371   9.774  15.076  1.00  0.00     0.021 A 
ATOM     26  C   UNL     1      13.708  10.761  16.836  1.00  0.00     0.021 A 
ATOM     27  C   UNL     1      13.205   9.628  16.188  1.00  0.00     0.041 A 
ATOM     28  Cl  UNL     1      13.625   8.027  16.766  1.00  0.00    -0.084 Cl
ENDBRANCH  15  22
ENDBRANCH  14  15
ENDBRANCH   8   9
ENDBRANCH   1   8
TORSDOF 9
ENDMDL
MODEL 14
REMARK VINA RESULT:    -7.815      5.199      7.129
REMARK INTER + INTRA:         -12.128
REMARK INTER:                 -11.576
REMARK INTRA:                  -0.552
REMARK UNBOUND:                -0.429
REMARK SMILES O=C(O)COCCN1CCN([C@H](c2ccccc2)c2ccc(Cl)cc2)CC1
REMARK SMILES IDX 6 1 5 2 4 3 2 4 1 5 3 6 7 8 8 9 9 10 27 11 10 12 26 13 11 14
REMARK SMILES IDX 12 15 13 16 14 17 18 18 15 19 17 20 16 21 19 22 20 23 25 24
REMARK SMILES IDX 21 25 24 26 22 27 23 28
REMARK H PARENT 3 7
REMARK Flexibility Score: inf
ROOT
ATOM      1  C   UNL     1      10.823   9.566  19.512  1.00  0.00     0.176 C 
ENDROOT
BRANCH   1   2
ATOM      2  O   UNL     1      11.736   9.395  20.583  1.00  0.00    -0.368 OA
BRANCH   2   3
ATOM      3  C   UNL     1      13.060   9.242  20.112  1.00  0.00     0.282 C 
BRANCH   3   4
ATOM      4  C   UNL     1      13.557   7.859  20.399  1.00  0.00     0.329 C 
ATOM      5  O   UNL     1      13.229   7.283  21.471  1.00  0.00    -0.250 OA
BRANCH   4   6
ATOM      6  O   UNL     1      14.362   7.205  19.473  1.00  0.00    -0.480 OA
ATOM      7  H   UNL     1      14.051   7.069  18.518  1.00  0.00     0.296 HD
ENDBRANCH   4   6
ENDBRANCH   3   4
ENDBRANCH   2   3
ENDBRANCH   1   2
BRANCH   1   8
ATOM      8  C   UNL     1       9.563  10.308  19.982  1.00  0.00     0.113 C 
BRANCH   8   9
ATOM      9  N   UNL     1       9.303  11.520  19.172  1.00  0.00    -0.299 NA
ATOM     10  C   UNL     1       8.893  11.174  17.787  1.00  0.00     0.100 C 
ATOM     11  C   UNL     1      10.452  12.459  19.216  1.00  0.00     0.100 C 
ATOM     12  C   UNL     1       9.160  12.329  16.811  1.00  0.00     0.101 C 
ATOM     13  C   UNL     1      11.343  12.341  17.971  1.00  0.00     0.101 C 
ATOM     14  N   UNL     1      10.604  12.689  16.728  1.00  0.00    -0.290 NA
BRANCH  14  15
ATOM     15  C   UNL     1      11.257  12.115  15.516  1.00  0.00     0.117 C 
BRANCH  15  16
ATOM     16  C   UNL     1      12.218  10.985  15.855  1.00  0.00    -0.026 A 
ATOM     17  C   UNL     1      13.454  11.246  16.479  1.00  0.00     0.006 A 
ATOM     18  C   UNL     1      11.899   9.661  15.503  1.00  0.00     0.006 A 
ATOM     19  C   UNL     1      14.338  10.200  16.759  1.00  0.00     0.000 A 
ATOM     20  C   UNL     1      12.787   8.620  15.785  1.00  0.00     0.000 A 
ATOM     21  C   UNL     1      14.005   8.888  16.414  1.00  0.00     0.000 A 
ENDBRANCH  15  16
BRANCH  15  22
ATOM     22  C   UNL     1      12.040  13.164  14.739  1.00  0.00    -0.026 A 
ATOM     23  C   UNL     1      12.291  14.440  15.279  1.00  0.00     0.007 A 
ATOM     24  C   UNL     1      12.581  12.838  13.483  1.00  0.00     0.007 A 
ATOM     25  C   UNL     1      13.044  15.375  14.563  1.00  0.00     0.021 A 
ATOM     26  C   UNL     1      13.334  13.775  12.771  1.00  0.00     0.021 A 
ATOM     27  C   UNL     1      13.564  15.045  13.309  1.00  0.00     0.041 A 
ATOM     28  Cl  UNL     1      14.511  16.220  12.414  1.00  0.00    -0.084 Cl
ENDBRANCH  15  22
ENDBRANCH  14  15
ENDBRANCH   8   9
ENDBRANCH   1   8
TORSDOF 9
ENDMDL
MODEL 15
REMARK VINA RESULT:    -7.612     11.937     15.339
REMARK INTER + INTRA:         -11.823
REMARK INTER:                 -11.002
REMARK INTRA:                  -0.821
REMARK UNBOUND:                -0.429
REMARK SMILES O=C(O)COCCN1CCN([C@H](c2ccccc2)c2ccc(Cl)cc2)CC1
REMARK SMILES IDX 6 1 5 2 4 3 2 4 1 5 3 6 7 8 8 9 9 10 27 11 10 12 26 13 11 14
REMARK SMILES IDX 12 15 13 16 14 17 18 18 15 19 17 20 16 21 19 22 20 23 25 24
REMARK SMILES IDX 21 25 24 26 22 27 23 28
REMARK H PARENT 3 7
REMARK Flexibility Score: inf
ROOT
ATOM      1  C   UNL     1      21.139  14.594   5.846  1.00  0.00     0.176 C 
ENDROOT
BRANCH   1   2
ATOM      2  O   UNL     1      22.303  14.035   6.430  1.00  0.00    -0.368 OA
BRANCH   2   3
ATOM      3  C   UNL     1      22.272  12.622   6.389  1.00  0.00     0.282 C 
BRANCH   3   4
ATOM      4  C   UNL     1      22.183  12.146   4.973  1.00  0.00     0.329 C 
ATOM      5  O   UNL     1      23.193  12.210   4.222  1.00  0.00    -0.250 OA
BRANCH   4   6
ATOM      6  O   UNL     1      20.991  11.613   4.493  1.00  0.00    -0.480 OA
ATOM      7  H   UNL     1      20.159  12.185   4.417  1.00  0.00     0.296 HD
ENDBRANCH   4   6
ENDBRANCH   3   4
ENDBRANCH   2   3
ENDBRANCH   1   2
BRANCH   1   8
ATOM      8  C   UNL     1      21.509  15.657   4.800  1.00  0.00     0.113 C 
BRANCH   8   9
ATOM      9  N   UNL     1      20.319  16.159   4.078  1.00  0.00    -0.299 NA
ATOM     10  C   UNL     1      19.095  16.066   4.912  1.00  0.00     0.100 C 
ATOM     11  C   UNL     1      20.168  15.499   2.757  1.00  0.00     0.100 C 
ATOM     12  C   UNL     1      17.822  16.037   4.053  1.00  0.00     0.101 C 
ATOM     13  C   UNL     1      19.135  14.363   2.792  1.00  0.00     0.101 C 
ATOM     14  N   UNL     1      17.776  14.863   3.136  1.00  0.00    -0.290 NA
BRANCH  14  15
ATOM     15  C   UNL     1      16.901  13.774   3.659  1.00  0.00     0.117 C 
BRANCH  15  16
ATOM     16  C   UNL     1      16.191  13.016   2.547  1.00  0.00    -0.026 A 
ATOM     17  C   UNL     1      16.197  13.496   1.223  1.00  0.00     0.006 A 
ATOM     18  C   UNL     1      15.475  11.842   2.843  1.00  0.00     0.006 A 
ATOM     19  C   UNL     1      15.516  12.804   0.218  1.00  0.00     0.000 A 
ATOM     20  C   UNL     1      14.796  11.154   1.834  1.00  0.00     0.000 A 
ATOM     21  C   UNL     1      14.818  11.633   0.522  1.00  0.00     0.000 A 
ENDBRANCH  15  16
BRANCH  15  22
ATOM     22  C   UNL     1      15.834  14.305   4.606  1.00  0.00    -0.026 A 
ATOM     23  C   UNL     1      14.868  15.233   4.173  1.00  0.00     0.007 A 
ATOM     24  C   UNL     1      15.767  13.815   5.921  1.00  0.00     0.007 A 
ATOM     25  C   UNL     1      13.874  15.679   5.049  1.00  0.00     0.021 A 
ATOM     26  C   UNL     1      14.771  14.263   6.794  1.00  0.00     0.021 A 
ATOM     27  C   UNL     1      13.825  15.197   6.360  1.00  0.00     0.041 A 
ATOM     28  Cl  UNL     1      12.575  15.757   7.456  1.00  0.00    -0.084 Cl
ENDBRANCH  15  22
ENDBRANCH  14  15
ENDBRANCH   8   9
ENDBRANCH   1   8
TORSDOF 9
ENDMDL
