MODEL 1
REMARK VINA RESULT:    -8.945      0.000      0.000
REMARK INTER + INTRA:         -15.479
REMARK INTER:                 -14.174
REMARK INTRA:                  -1.304
REMARK UNBOUND:                -1.304
REMARK SMILES COc1cc(Nc2c(C#N)cnc3cc(OCCCN4CCN(C)CC4)c(OC)cc23)c(Cl)cc1Cl
REMARK SMILES IDX 16 1 15 2 7 3 8 4 31 5 11 6 13 7 30 8 12 9 14 10 27 11 6 12
REMARK SMILES IDX 5 14 3 15 4 16 35 17 34 18 36 19 32 20 33 21 2 22 1 23 9 24
REMARK SMILES IDX 10 25 28 26 29 27 17 28 18 29 19 30 20 31 21 32 26 33 22 34
REMARK SMILES IDX 25 35 23 36 24 37
REMARK H PARENT 6 13
REMARK Flexibility Score: inf
ROOT
ATOM      1  O   UNL     1      16.177  33.953  10.858  1.00  0.00    -0.490 OA
ENDROOT
BRANCH   1   2
ATOM      2  C   UNL     1      17.013  33.832  11.977  1.00  0.00     0.163 A 
ATOM      3  C   UNL     1      19.515  33.530  15.390  1.00  0.00     0.068 A 
ATOM      4  C   UNL     1      20.905  33.435  15.181  1.00  0.00     0.094 A 
ATOM      5  C   UNL     1      18.655  33.642  14.268  1.00  0.00     0.029 A 
ATOM      6  C   UNL     1      21.413  33.474  13.880  1.00  0.00     0.133 A 
ATOM      7  C   UNL     1      19.226  33.669  12.976  1.00  0.00     0.076 A 
ATOM      8  C   UNL     1      17.254  33.705  14.391  1.00  0.00     0.063 A 
ATOM      9  N   UNL     1      20.572  33.587  12.822  1.00  0.00    -0.255 NA
ATOM     10  C   UNL     1      18.409  33.757  11.844  1.00  0.00     0.079 A 
ATOM     11  C   UNL     1      16.434  33.824  13.253  1.00  0.00     0.161 A 
BRANCH   3  12
ATOM     12  N   UNL     1      18.997  33.480  16.733  1.00  0.00    -0.353 N 
ATOM     13  H   UNL     1      18.932  32.538  17.179  1.00  0.00     0.167 HD
BRANCH  12  14
ATOM     14  C   UNL     1      18.724  34.648  17.533  1.00  0.00     0.061 A 
ATOM     15  C   UNL     1      19.498  36.677  18.668  1.00  0.00     0.139 A 
ATOM     16  C   UNL     1      19.765  35.518  17.914  1.00  0.00     0.075 A 
ATOM     17  C   UNL     1      18.179  36.952  19.053  1.00  0.00     0.084 A 
ATOM     18  C   UNL     1      17.144  36.086  18.691  1.00  0.00     0.047 A 
ATOM     19  Cl  UNL     1      17.800  38.390  19.991  1.00  0.00    -0.080 Cl
ATOM     20  C   UNL     1      17.405  34.941  17.937  1.00  0.00     0.066 A 
ATOM     21  Cl  UNL     1      16.050  33.915  17.478  1.00  0.00    -0.082 Cl
BRANCH  15  22
ATOM     22  O   UNL     1      20.511  37.574  19.046  1.00  0.00    -0.495 OA
ATOM     23  C   UNL     1      21.581  37.258  19.932  1.00  0.00     0.278 C 
ENDBRANCH  15  22
ENDBRANCH  12  14
ENDBRANCH   3  12
BRANCH   4  24
ATOM     24  C   UNL     1      21.818  33.307  16.288  1.00  0.00     0.103 C 
ATOM     25  N   UNL     1      22.551  33.206  17.178  1.00  0.00    -0.192 NA
ENDBRANCH   4  24
BRANCH  11  26
ATOM     26  O   UNL     1      15.037  33.921  13.348  1.00  0.00    -0.493 OA
ATOM     27  C   UNL     1      14.325  34.254  14.537  1.00  0.00     0.278 C 
ENDBRANCH  11  26
ENDBRANCH   1   2
BRANCH   1  28
ATOM     28  C   UNL     1      16.506  34.711   9.694  1.00  0.00     0.231 C 
BRANCH  28  29
ATOM     29  C   UNL     1      16.393  33.817   8.461  1.00  0.00     0.057 C 
BRANCH  29  30
ATOM     30  C   UNL     1      17.381  32.641   8.533  1.00  0.00     0.088 C 
BRANCH  30  31
ATOM     31  N   UNL     1      16.689  31.365   8.239  1.00  0.00    -0.301 NA
ATOM     32  C   UNL     1      17.377  30.644   7.149  1.00  0.00     0.100 C 
ATOM     33  C   UNL     1      15.275  31.606   7.868  1.00  0.00     0.100 C 
ATOM     34  C   UNL     1      16.663  29.321   6.850  1.00  0.00     0.099 C 
ATOM     35  C   UNL     1      14.567  30.280   7.581  1.00  0.00     0.099 C 
ATOM     36  N   UNL     1      15.256  29.574   6.485  1.00  0.00    -0.304 NA
ATOM     37  C   UNL     1      14.571  28.307   6.191  1.00  0.00     0.105 C 
ENDBRANCH  30  31
ENDBRANCH  29  30
ENDBRANCH  28  29
ENDBRANCH   1  28
TORSDOF 10
ENDMDL
MODEL 2
REMARK VINA RESULT:    -8.745      2.610      4.214
REMARK INTER + INTRA:         -15.162
REMARK INTER:                 -14.281
REMARK INTRA:                  -0.880
REMARK UNBOUND:                -1.304
REMARK SMILES COc1cc(Nc2c(C#N)cnc3cc(OCCCN4CCN(C)CC4)c(OC)cc23)c(Cl)cc1Cl
REMARK SMILES IDX 16 1 15 2 7 3 8 4 31 5 11 6 13 7 30 8 12 9 14 10 27 11 6 12
REMARK SMILES IDX 5 14 3 15 4 16 35 17 34 18 36 19 32 20 33 21 2 22 1 23 9 24
REMARK SMILES IDX 10 25 28 26 29 27 17 28 18 29 19 30 20 31 21 32 26 33 22 34
REMARK SMILES IDX 25 35 23 36 24 37
REMARK H PARENT 6 13
REMARK Flexibility Score: inf
ROOT
ATOM      1  O   UNL     1      16.344  33.525  11.201  1.00  0.00    -0.490 OA
ENDROOT
BRANCH   1   2
ATOM      2  C   UNL     1      16.841  33.687  12.502  1.00  0.00     0.163 A 
ATOM      3  C   UNL     1      18.364  34.104  16.440  1.00  0.00     0.068 A 
ATOM      4  C   UNL     1      17.501  34.620  17.428  1.00  0.00     0.094 A 
ATOM      5  C   UNL     1      17.879  33.945  15.117  1.00  0.00     0.029 A 
ATOM      6  C   UNL     1      16.183  34.942  17.096  1.00  0.00     0.133 A 
ATOM      7  C   UNL     1      16.539  34.296  14.839  1.00  0.00     0.076 A 
ATOM      8  C   UNL     1      18.687  33.470  14.067  1.00  0.00     0.063 A 
ATOM      9  N   UNL     1      15.740  34.776  15.825  1.00  0.00    -0.255 NA
ATOM     10  C   UNL     1      16.031  34.172  13.541  1.00  0.00     0.079 A 
ATOM     11  C   UNL     1      18.167  33.318  12.767  1.00  0.00     0.161 A 
BRANCH   3  12
ATOM     12  N   UNL     1      19.724  33.782  16.787  1.00  0.00    -0.353 N 
ATOM     13  H   UNL     1      19.864  33.033  17.502  1.00  0.00     0.167 HD
BRANCH  12  14
ATOM     14  C   UNL     1      20.875  34.311  16.100  1.00  0.00     0.061 A 
ATOM     15  C   UNL     1      22.902  33.963  14.768  1.00  0.00     0.139 A 
ATOM     16  C   UNL     1      21.793  33.449  15.468  1.00  0.00     0.075 A 
ATOM     17  C   UNL     1      23.095  35.350  14.718  1.00  0.00     0.084 A 
ATOM     18  C   UNL     1      22.197  36.210  15.355  1.00  0.00     0.047 A 
ATOM     19  Cl  UNL     1      24.463  36.034  13.851  1.00  0.00    -0.080 Cl
ATOM     20  C   UNL     1      21.093  35.703  16.043  1.00  0.00     0.066 A 
ATOM     21  Cl  UNL     1      19.975  36.842  16.787  1.00  0.00    -0.082 Cl
BRANCH  15  22
ATOM     22  O   UNL     1      23.823  33.131  14.110  1.00  0.00    -0.495 OA
ATOM     23  C   UNL     1      23.681  32.669  12.769  1.00  0.00     0.278 C 
ENDBRANCH  15  22
ENDBRANCH  12  14
ENDBRANCH   3  12
BRANCH   4  24
ATOM     24  C   UNL     1      17.951  34.812  18.784  1.00  0.00     0.103 C 
ATOM     25  N   UNL     1      18.313  34.967  19.871  1.00  0.00    -0.192 NA
ENDBRANCH   4  24
BRANCH  11  26
ATOM     26  O   UNL     1      18.941  32.818  11.709  1.00  0.00    -0.493 OA
ATOM     27  C   UNL     1      20.110  32.018  11.865  1.00  0.00     0.278 C 
ENDBRANCH  11  26
ENDBRANCH   1   2
BRANCH   1  28
ATOM     28  C   UNL     1      16.490  34.496  10.165  1.00  0.00     0.231 C 
BRANCH  28  29
ATOM     29  C   UNL     1      16.506  33.790   8.811  1.00  0.00     0.057 C 
BRANCH  29  30
ATOM     30  C   UNL     1      17.465  32.589   8.819  1.00  0.00     0.088 C 
BRANCH  30  31
ATOM     31  N   UNL     1      16.755  31.356   8.408  1.00  0.00    -0.301 NA
ATOM     32  C   UNL     1      17.473  30.692   7.300  1.00  0.00     0.100 C 
ATOM     33  C   UNL     1      15.366  31.661   7.995  1.00  0.00     0.100 C 
ATOM     34  C   UNL     1      16.740  29.413   6.881  1.00  0.00     0.099 C 
ATOM     35  C   UNL     1      14.638  30.378   7.586  1.00  0.00     0.099 C 
ATOM     36  N   UNL     1      15.358  29.730   6.474  1.00  0.00    -0.304 NA
ATOM     37  C   UNL     1      14.655  28.506   6.064  1.00  0.00     0.105 C 
ENDBRANCH  30  31
ENDBRANCH  29  30
ENDBRANCH  28  29
ENDBRANCH   1  28
TORSDOF 10
ENDMDL
MODEL 3
REMARK VINA RESULT:    -8.595      1.497      2.033
REMARK INTER + INTRA:         -14.924
REMARK INTER:                 -14.104
REMARK INTRA:                  -0.820
REMARK UNBOUND:                -1.304
REMARK SMILES COc1cc(Nc2c(C#N)cnc3cc(OCCCN4CCN(C)CC4)c(OC)cc23)c(Cl)cc1Cl
REMARK SMILES IDX 16 1 15 2 7 3 8 4 31 5 11 6 13 7 30 8 12 9 14 10 27 11 6 12
REMARK SMILES IDX 5 14 3 15 4 16 35 17 34 18 36 19 32 20 33 21 2 22 1 23 9 24
REMARK SMILES IDX 10 25 28 26 29 27 17 28 18 29 19 30 20 31 21 32 26 33 22 34
REMARK SMILES IDX 25 35 23 36 24 37
REMARK H PARENT 6 13
REMARK Flexibility Score: inf
ROOT
ATOM      1  O   UNL     1      16.360  34.076  11.128  1.00  0.00    -0.490 OA
ENDROOT
BRANCH   1   2
ATOM      2  C   UNL     1      17.396  33.876  12.051  1.00  0.00     0.163 A 
ATOM      3  C   UNL     1      20.514  33.338  14.878  1.00  0.00     0.068 A 
ATOM      4  C   UNL     1      21.816  33.115  14.387  1.00  0.00     0.094 A 
ATOM      5  C   UNL     1      19.454  33.531  13.956  1.00  0.00     0.029 A 
ATOM      6  C   UNL     1      22.045  33.110  13.009  1.00  0.00     0.133 A 
ATOM      7  C   UNL     1      19.744  33.507  12.574  1.00  0.00     0.076 A 
ATOM      8  C   UNL     1      18.120  33.723  14.366  1.00  0.00     0.063 A 
ATOM      9  N   UNL     1      21.016  33.302  12.146  1.00  0.00    -0.255 NA
ATOM     10  C   UNL     1      18.721  33.673  11.634  1.00  0.00     0.079 A 
ATOM     11  C   UNL     1      17.096  33.919  13.419  1.00  0.00     0.161 A 
BRANCH   3  12
ATOM     12  N   UNL     1      20.283  33.332  16.300  1.00  0.00    -0.353 N 
ATOM     13  H   UNL     1      20.642  32.509  16.834  1.00  0.00     0.167 HD
BRANCH  12  14
ATOM     14  C   UNL     1      19.743  34.452  17.030  1.00  0.00     0.061 A 
ATOM     15  C   UNL     1      17.940  35.459  18.350  1.00  0.00     0.139 A 
ATOM     16  C   UNL     1      18.460  34.380  17.608  1.00  0.00     0.075 A 
ATOM     17  C   UNL     1      18.710  36.620  18.497  1.00  0.00     0.084 A 
ATOM     18  C   UNL     1      19.978  36.703  17.913  1.00  0.00     0.047 A 
ATOM     19  Cl  UNL     1      18.103  37.988  19.418  1.00  0.00    -0.080 Cl
ATOM     20  C   UNL     1      20.497  35.632  17.185  1.00  0.00     0.066 A 
ATOM     21  Cl  UNL     1      22.118  35.785  16.513  1.00  0.00    -0.082 Cl
BRANCH  15  22
ATOM     22  O   UNL     1      16.674  35.410  18.955  1.00  0.00    -0.495 OA
ATOM     23  C   UNL     1      15.506  36.045  18.440  1.00  0.00     0.278 C 
ENDBRANCH  15  22
ENDBRANCH  12  14
ENDBRANCH   3  12
BRANCH   4  24
ATOM     24  C   UNL     1      22.923  32.901  15.284  1.00  0.00     0.103 C 
ATOM     25  N   UNL     1      23.813  32.729  16.004  1.00  0.00    -0.192 NA
ENDBRANCH   4  24
BRANCH  11  26
ATOM     26  O   UNL     1      15.764  34.145  13.800  1.00  0.00    -0.493 OA
ATOM     27  C   UNL     1      15.343  34.487  15.118  1.00  0.00     0.278 C 
ENDBRANCH  11  26
ENDBRANCH   1   2
BRANCH   1  28
ATOM     28  C   UNL     1      16.483  34.877   9.953  1.00  0.00     0.231 C 
BRANCH  28  29
ATOM     29  C   UNL     1      16.145  34.030   8.727  1.00  0.00     0.057 C 
BRANCH  29  30
ATOM     30  C   UNL     1      17.224  32.967   8.470  1.00  0.00     0.088 C 
BRANCH  30  31
ATOM     31  N   UNL     1      16.600  31.650   8.205  1.00  0.00    -0.301 NA
ATOM     32  C   UNL     1      17.388  30.896   7.209  1.00  0.00     0.100 C 
ATOM     33  C   UNL     1      15.209  31.813   7.725  1.00  0.00     0.100 C 
ATOM     34  C   UNL     1      16.745  29.531   6.940  1.00  0.00     0.099 C 
ATOM     35  C   UNL     1      14.570  30.446   7.469  1.00  0.00     0.099 C 
ATOM     36  N   UNL     1      15.359  29.708   6.465  1.00  0.00    -0.304 NA
ATOM     37  C   UNL     1      14.741  28.400   6.200  1.00  0.00     0.105 C 
ENDBRANCH  30  31
ENDBRANCH  29  30
ENDBRANCH  28  29
ENDBRANCH   1  28
TORSDOF 10
ENDMDL
MODEL 4
REMARK VINA RESULT:    -8.496      1.272      1.638
REMARK INTER + INTRA:         -14.768
REMARK INTER:                 -13.506
REMARK INTRA:                  -1.262
REMARK UNBOUND:                -1.304
REMARK SMILES COc1cc(Nc2c(C#N)cnc3cc(OCCCN4CCN(C)CC4)c(OC)cc23)c(Cl)cc1Cl
REMARK SMILES IDX 16 1 15 2 7 3 8 4 31 5 11 6 13 7 30 8 12 9 14 10 27 11 6 12
REMARK SMILES IDX 5 14 3 15 4 16 35 17 34 18 36 19 32 20 33 21 2 22 1 23 9 24
REMARK SMILES IDX 10 25 28 26 29 27 17 28 18 29 19 30 20 31 21 32 26 33 22 34
REMARK SMILES IDX 25 35 23 36 24 37
REMARK H PARENT 6 13
REMARK Flexibility Score: inf
ROOT
ATOM      1  O   UNL     1      15.990  34.273  11.102  1.00  0.00    -0.490 OA
ENDROOT
BRANCH   1   2
ATOM      2  C   UNL     1      17.035  33.968  11.986  1.00  0.00     0.163 A 
ATOM      3  C   UNL     1      20.178  33.108  14.702  1.00  0.00     0.068 A 
ATOM      4  C   UNL     1      21.481  32.978  14.181  1.00  0.00     0.094 A 
ATOM      5  C   UNL     1      19.109  33.405  13.819  1.00  0.00     0.029 A 
ATOM      6  C   UNL     1      21.702  33.166  12.814  1.00  0.00     0.133 A 
ATOM      7  C   UNL     1      19.392  33.576  12.445  1.00  0.00     0.076 A 
ATOM      8  C   UNL     1      17.775  33.515  14.255  1.00  0.00     0.063 A 
ATOM      9  N   UNL     1      20.664  33.454  11.989  1.00  0.00    -0.255 NA
ATOM     10  C   UNL     1      18.361  33.848  11.540  1.00  0.00     0.079 A 
ATOM     11  C   UNL     1      16.742  33.819  13.348  1.00  0.00     0.161 A 
BRANCH   3  12
ATOM     12  N   UNL     1      19.956  32.905  16.111  1.00  0.00    -0.353 N 
ATOM     13  H   UNL     1      19.865  31.917  16.437  1.00  0.00     0.167 HD
BRANCH  12  14
ATOM     14  C   UNL     1      20.015  33.959  17.093  1.00  0.00     0.061 A 
ATOM     15  C   UNL     1      21.291  35.650  18.325  1.00  0.00     0.139 A 
ATOM     16  C   UNL     1      21.235  34.599  17.388  1.00  0.00     0.075 A 
ATOM     17  C   UNL     1      20.117  36.047  18.976  1.00  0.00     0.084 A 
ATOM     18  C   UNL     1      18.906  35.407  18.699  1.00  0.00     0.047 A 
ATOM     19  Cl  UNL     1      20.140  37.358  20.148  1.00  0.00    -0.080 Cl
ATOM     20  C   UNL     1      18.847  34.370  17.766  1.00  0.00     0.066 A 
ATOM     21  Cl  UNL     1      17.282  33.635  17.431  1.00  0.00    -0.082 Cl
BRANCH  15  22
ATOM     22  O   UNL     1      22.488  36.321  18.625  1.00  0.00    -0.495 OA
ATOM     23  C   UNL     1      23.367  36.881  17.653  1.00  0.00     0.278 C 
ENDBRANCH  15  22
ENDBRANCH  12  14
ENDBRANCH   3  12
BRANCH   4  24
ATOM     24  C   UNL     1      22.598  32.665  15.037  1.00  0.00     0.103 C 
ATOM     25  N   UNL     1      23.493  32.414  15.725  1.00  0.00    -0.192 NA
ENDBRANCH   4  24
BRANCH  11  26
ATOM     26  O   UNL     1      15.408  33.966  13.760  1.00  0.00    -0.493 OA
ATOM     27  C   UNL     1      14.988  34.711  14.900  1.00  0.00     0.278 C 
ENDBRANCH  11  26
ENDBRANCH   1   2
BRANCH   1  28
ATOM     28  C   UNL     1      16.149  35.056   9.919  1.00  0.00     0.231 C 
BRANCH  28  29
ATOM     29  C   UNL     1      15.848  34.191   8.697  1.00  0.00     0.057 C 
BRANCH  29  30
ATOM     30  C   UNL     1      17.142  33.673   8.049  1.00  0.00     0.088 C 
BRANCH  30  31
ATOM     31  N   UNL     1      16.902  32.372   7.381  1.00  0.00    -0.301 NA
ATOM     32  C   UNL     1      15.842  31.620   8.083  1.00  0.00     0.100 C 
ATOM     33  C   UNL     1      18.143  31.566   7.336  1.00  0.00     0.100 C 
ATOM     34  C   UNL     1      15.589  30.278   7.387  1.00  0.00     0.099 C 
ATOM     35  C   UNL     1      17.886  30.232   6.631  1.00  0.00     0.099 C 
ATOM     36  N   UNL     1      16.834  29.486   7.346  1.00  0.00    -0.304 NA
ATOM     37  C   UNL     1      16.594  28.194   6.685  1.00  0.00     0.105 C 
ENDBRANCH  30  31
ENDBRANCH  29  30
ENDBRANCH  28  29
ENDBRANCH   1  28
TORSDOF 10
ENDMDL
MODEL 5
REMARK VINA RESULT:    -8.424      2.266      3.612
REMARK INTER + INTRA:         -14.653
REMARK INTER:                 -13.359
REMARK INTRA:                  -1.294
REMARK UNBOUND:                -1.304
REMARK SMILES COc1cc(Nc2c(C#N)cnc3cc(OCCCN4CCN(C)CC4)c(OC)cc23)c(Cl)cc1Cl
REMARK SMILES IDX 16 1 15 2 7 3 8 4 31 5 11 6 13 7 30 8 12 9 14 10 27 11 6 12
REMARK SMILES IDX 5 14 3 15 4 16 35 17 34 18 36 19 32 20 33 21 2 22 1 23 9 24
REMARK SMILES IDX 10 25 28 26 29 27 17 28 18 29 19 30 20 31 21 32 26 33 22 34
REMARK SMILES IDX 25 35 23 36 24 37
REMARK H PARENT 6 13
REMARK Flexibility Score: inf
ROOT
ATOM      1  O   UNL     1      16.480  33.489  11.382  1.00  0.00    -0.490 OA
ENDROOT
BRANCH   1   2
ATOM      2  C   UNL     1      16.956  33.640  12.692  1.00  0.00     0.163 A 
ATOM      3  C   UNL     1      18.406  34.021  16.661  1.00  0.00     0.068 A 
ATOM      4  C   UNL     1      17.583  34.672  17.602  1.00  0.00     0.094 A 
ATOM      5  C   UNL     1      17.943  33.871  15.329  1.00  0.00     0.029 A 
ATOM      6  C   UNL     1      16.322  35.135  17.217  1.00  0.00     0.133 A 
ATOM      7  C   UNL     1      16.662  34.367  14.996  1.00  0.00     0.076 A 
ATOM      8  C   UNL     1      18.719  33.266  14.321  1.00  0.00     0.063 A 
ATOM      9  N   UNL     1      15.899  34.975  15.939  1.00  0.00    -0.255 NA
ATOM     10  C   UNL     1      16.180  34.256  13.687  1.00  0.00     0.079 A 
ATOM     11  C   UNL     1      18.220  33.128  13.012  1.00  0.00     0.161 A 
BRANCH   3  12
ATOM     12  N   UNL     1      19.708  33.554  17.062  1.00  0.00    -0.353 N 
ATOM     13  H   UNL     1      19.789  32.545  17.320  1.00  0.00     0.167 HD
BRANCH  12  14
ATOM     14  C   UNL     1      20.909  34.347  16.973  1.00  0.00     0.061 A 
ATOM     15  C   UNL     1      22.229  36.292  17.663  1.00  0.00     0.139 A 
ATOM     16  C   UNL     1      21.045  35.531  17.723  1.00  0.00     0.075 A 
ATOM     17  C   UNL     1      23.273  35.865  16.832  1.00  0.00     0.084 A 
ATOM     18  C   UNL     1      23.139  34.699  16.074  1.00  0.00     0.047 A 
ATOM     19  Cl  UNL     1      24.770  36.781  16.730  1.00  0.00    -0.080 Cl
ATOM     20  C   UNL     1      21.969  33.940  16.138  1.00  0.00     0.066 A 
ATOM     21  Cl  UNL     1      21.881  32.458  15.190  1.00  0.00    -0.082 Cl
BRANCH  15  22
ATOM     22  O   UNL     1      22.404  37.466  18.414  1.00  0.00    -0.495 OA
ATOM     23  C   UNL     1      22.361  37.529  19.837  1.00  0.00     0.278 C 
ENDBRANCH  15  22
ENDBRANCH  12  14
ENDBRANCH   3  12
BRANCH   4  24
ATOM     24  C   UNL     1      18.015  34.859  18.964  1.00  0.00     0.103 C 
ATOM     25  N   UNL     1      18.362  35.011  20.057  1.00  0.00    -0.192 NA
ENDBRANCH   4  24
BRANCH  11  26
ATOM     26  O   UNL     1      18.959  32.501  11.996  1.00  0.00    -0.493 OA
ATOM     27  C   UNL     1      20.381  32.506  11.905  1.00  0.00     0.278 C 
ENDBRANCH  11  26
ENDBRANCH   1   2
BRANCH   1  28
ATOM     28  C   UNL     1      16.627  34.477  10.361  1.00  0.00     0.231 C 
BRANCH  28  29
ATOM     29  C   UNL     1      16.511  33.809   8.993  1.00  0.00     0.057 C 
BRANCH  29  30
ATOM     30  C   UNL     1      17.508  32.648   8.853  1.00  0.00     0.088 C 
BRANCH  30  31
ATOM     31  N   UNL     1      16.804  31.405   8.459  1.00  0.00    -0.301 NA
ATOM     32  C   UNL     1      17.506  30.748   7.338  1.00  0.00     0.100 C 
ATOM     33  C   UNL     1      15.403  31.693   8.074  1.00  0.00     0.100 C 
ATOM     34  C   UNL     1      16.780  29.459   6.936  1.00  0.00     0.099 C 
ATOM     35  C   UNL     1      14.682  30.401   7.684  1.00  0.00     0.099 C 
ATOM     36  N   UNL     1      15.386  29.759   6.558  1.00  0.00    -0.304 NA
ATOM     37  C   UNL     1      14.688  28.526   6.165  1.00  0.00     0.105 C 
ENDBRANCH  30  31
ENDBRANCH  29  30
ENDBRANCH  28  29
ENDBRANCH   1  28
TORSDOF 10
ENDMDL
MODEL 6
REMARK VINA RESULT:    -8.363      2.958      4.411
REMARK INTER + INTRA:         -14.557
REMARK INTER:                 -13.340
REMARK INTRA:                  -1.217
REMARK UNBOUND:                -1.304
REMARK SMILES COc1cc(Nc2c(C#N)cnc3cc(OCCCN4CCN(C)CC4)c(OC)cc23)c(Cl)cc1Cl
REMARK SMILES IDX 16 1 15 2 7 3 8 4 31 5 11 6 13 7 30 8 12 9 14 10 27 11 6 12
REMARK SMILES IDX 5 14 3 15 4 16 35 17 34 18 36 19 32 20 33 21 2 22 1 23 9 24
REMARK SMILES IDX 10 25 28 26 29 27 17 28 18 29 19 30 20 31 21 32 26 33 22 34
REMARK SMILES IDX 25 35 23 36 24 37
REMARK H PARENT 6 13
REMARK Flexibility Score: inf
ROOT
ATOM      1  O   UNL     1      17.325  32.545  12.155  1.00  0.00    -0.490 OA
ENDROOT
BRANCH   1   2
ATOM      2  C   UNL     1      17.697  33.398  13.204  1.00  0.00     0.163 A 
ATOM      3  C   UNL     1      18.884  35.933  16.392  1.00  0.00     0.068 A 
ATOM      4  C   UNL     1      17.934  36.221  17.392  1.00  0.00     0.094 A 
ATOM      5  C   UNL     1      18.518  35.081  15.320  1.00  0.00     0.029 A 
ATOM      6  C   UNL     1      16.661  35.648  17.324  1.00  0.00     0.133 A 
ATOM      7  C   UNL     1      17.214  34.537  15.299  1.00  0.00     0.076 A 
ATOM      8  C   UNL     1      19.397  34.773  14.263  1.00  0.00     0.063 A 
ATOM      9  N   UNL     1      16.336  34.832  16.291  1.00  0.00    -0.255 NA
ATOM     10  C   UNL     1      16.810  33.709  14.247  1.00  0.00     0.079 A 
ATOM     11  C   UNL     1      18.999  33.916  13.219  1.00  0.00     0.161 A 
BRANCH   3  12
ATOM     12  N   UNL     1      20.191  36.534  16.464  1.00  0.00    -0.353 N 
ATOM     13  H   UNL     1      20.228  37.571  16.585  1.00  0.00     0.167 HD
BRANCH  12  14
ATOM     14  C   UNL     1      21.418  35.782  16.540  1.00  0.00     0.061 A 
ATOM     15  C   UNL     1      22.836  34.134  17.671  1.00  0.00     0.139 A 
ATOM     16  C   UNL     1      21.652  34.895  17.610  1.00  0.00     0.075 A 
ATOM     17  C   UNL     1      23.794  34.279  16.659  1.00  0.00     0.084 A 
ATOM     18  C   UNL     1      23.575  35.168  15.603  1.00  0.00     0.047 A 
ATOM     19  Cl  UNL     1      25.283  33.345  16.694  1.00  0.00    -0.080 Cl
ATOM     20  C   UNL     1      22.399  35.916  15.536  1.00  0.00     0.066 A 
ATOM     21  Cl  UNL     1      22.165  36.985  14.156  1.00  0.00    -0.082 Cl
BRANCH  15  22
ATOM     22  O   UNL     1      23.090  33.227  18.714  1.00  0.00    -0.495 OA
ATOM     23  C   UNL     1      23.850  33.529  19.881  1.00  0.00     0.278 C 
ENDBRANCH  15  22
ENDBRANCH  12  14
ENDBRANCH   3  12
BRANCH   4  24
ATOM     24  C   UNL     1      18.254  37.092  18.495  1.00  0.00     0.103 C 
ATOM     25  N   UNL     1      18.512  37.789  19.381  1.00  0.00    -0.192 NA
ENDBRANCH   4  24
BRANCH  11  26
ATOM     26  O   UNL     1      19.866  33.568  12.171  1.00  0.00    -0.493 OA
ATOM     27  C   UNL     1      20.833  32.523  12.231  1.00  0.00     0.278 C 
ENDBRANCH  11  26
ENDBRANCH   1   2
BRANCH   1  28
ATOM     28  C   UNL     1      16.482  32.936  11.071  1.00  0.00     0.231 C 
BRANCH  28  29
ATOM     29  C   UNL     1      17.341  33.214   9.839  1.00  0.00     0.057 C 
BRANCH  29  30
ATOM     30  C   UNL     1      16.471  33.437   8.592  1.00  0.00     0.088 C 
BRANCH  30  31
ATOM     31  N   UNL     1      16.531  32.255   7.701  1.00  0.00    -0.301 NA
ATOM     32  C   UNL     1      15.464  31.293   8.047  1.00  0.00     0.100 C 
ATOM     33  C   UNL     1      17.852  31.593   7.792  1.00  0.00     0.100 C 
ATOM     34  C   UNL     1      15.523  30.075   7.119  1.00  0.00     0.099 C 
ATOM     35  C   UNL     1      17.907  30.383   6.856  1.00  0.00     0.099 C 
ATOM     36  N   UNL     1      16.845  29.426   7.217  1.00  0.00    -0.304 NA
ATOM     37  C   UNL     1      16.902  28.252   6.334  1.00  0.00     0.105 C 
ENDBRANCH  30  31
ENDBRANCH  29  30
ENDBRANCH  28  29
ENDBRANCH   1  28
TORSDOF 10
ENDMDL
MODEL 7
REMARK VINA RESULT:    -8.325      1.889      2.468
REMARK INTER + INTRA:         -14.496
REMARK INTER:                 -13.279
REMARK INTRA:                  -1.217
REMARK UNBOUND:                -1.304
REMARK SMILES COc1cc(Nc2c(C#N)cnc3cc(OCCCN4CCN(C)CC4)c(OC)cc23)c(Cl)cc1Cl
REMARK SMILES IDX 16 1 15 2 7 3 8 4 31 5 11 6 13 7 30 8 12 9 14 10 27 11 6 12
REMARK SMILES IDX 5 14 3 15 4 16 35 17 34 18 36 19 32 20 33 21 2 22 1 23 9 24
REMARK SMILES IDX 10 25 28 26 29 27 17 28 18 29 19 30 20 31 21 32 26 33 22 34
REMARK SMILES IDX 25 35 23 36 24 37
REMARK H PARENT 6 13
REMARK Flexibility Score: inf
ROOT
ATOM      1  O   UNL     1      17.050  33.797  11.575  1.00  0.00    -0.490 OA
ENDROOT
BRANCH   1   2
ATOM      2  C   UNL     1      18.178  33.661  12.397  1.00  0.00     0.163 A 
ATOM      3  C   UNL     1      21.566  33.309  14.927  1.00  0.00     0.068 A 
ATOM      4  C   UNL     1      22.841  33.346  14.328  1.00  0.00     0.094 A 
ATOM      5  C   UNL     1      20.416  33.434  14.107  1.00  0.00     0.029 A 
ATOM      6  C   UNL     1      22.952  33.527  12.947  1.00  0.00     0.133 A 
ATOM      7  C   UNL     1      20.590  33.607  12.715  1.00  0.00     0.076 A 
ATOM      8  C   UNL     1      19.107  33.371  14.624  1.00  0.00     0.063 A 
ATOM      9  N   UNL     1      21.838  33.650  12.184  1.00  0.00    -0.255 NA
ATOM     10  C   UNL     1      19.479  33.713  11.872  1.00  0.00     0.079 A 
ATOM     11  C   UNL     1      17.990  33.508  13.777  1.00  0.00     0.161 A 
BRANCH   3  12
ATOM     12  N   UNL     1      21.458  33.113  16.350  1.00  0.00    -0.353 N 
ATOM     13  H   UNL     1      21.544  32.133  16.700  1.00  0.00     0.167 HD
BRANCH  12  14
ATOM     14  C   UNL     1      21.403  34.190  17.307  1.00  0.00     0.061 A 
ATOM     15  C   UNL     1      20.346  36.233  18.153  1.00  0.00     0.139 A 
ATOM     16  C   UNL     1      20.423  35.196  17.201  1.00  0.00     0.075 A 
ATOM     17  C   UNL     1      21.269  36.263  19.205  1.00  0.00     0.084 A 
ATOM     18  C   UNL     1      22.254  35.276  19.308  1.00  0.00     0.047 A 
ATOM     19  Cl  UNL     1      21.207  37.535  20.417  1.00  0.00    -0.080 Cl
ATOM     20  C   UNL     1      22.327  34.244  18.371  1.00  0.00     0.066 A 
ATOM     21  Cl  UNL     1      23.564  33.009  18.582  1.00  0.00    -0.082 Cl
BRANCH  15  22
ATOM     22  O   UNL     1      19.367  37.238  18.086  1.00  0.00    -0.495 OA
ATOM     23  C   UNL     1      18.060  37.133  18.644  1.00  0.00     0.278 C 
ENDBRANCH  15  22
ENDBRANCH  12  14
ENDBRANCH   3  12
BRANCH   4  24
ATOM     24  C   UNL     1      24.039  33.210  15.118  1.00  0.00     0.103 C 
ATOM     25  N   UNL     1      25.000  33.103  15.752  1.00  0.00    -0.192 NA
ENDBRANCH   4  24
BRANCH  11  26
ATOM     26  O   UNL     1      16.676  33.481  14.270  1.00  0.00    -0.493 OA
ATOM     27  C   UNL     1      16.180  34.322  15.308  1.00  0.00     0.278 C 
ENDBRANCH  11  26
ENDBRANCH   1   2
BRANCH   1  28
ATOM     28  C   UNL     1      17.035  34.547  10.361  1.00  0.00     0.231 C 
BRANCH  28  29
ATOM     29  C   UNL     1      16.514  33.664   9.229  1.00  0.00     0.057 C 
BRANCH  29  30
ATOM     30  C   UNL     1      17.522  32.559   8.876  1.00  0.00     0.088 C 
BRANCH  30  31
ATOM     31  N   UNL     1      16.814  31.329   8.452  1.00  0.00    -0.301 NA
ATOM     32  C   UNL     1      17.510  30.700   7.310  1.00  0.00     0.100 C 
ATOM     33  C   UNL     1      15.412  31.629   8.081  1.00  0.00     0.100 C 
ATOM     34  C   UNL     1      16.780  29.424   6.877  1.00  0.00     0.099 C 
ATOM     35  C   UNL     1      14.687  30.349   7.659  1.00  0.00     0.099 C 
ATOM     36  N   UNL     1      15.384  29.737   6.513  1.00  0.00    -0.304 NA
ATOM     37  C   UNL     1      14.683  28.515   6.090  1.00  0.00     0.105 C 
ENDBRANCH  30  31
ENDBRANCH  29  30
ENDBRANCH  28  29
ENDBRANCH   1  28
TORSDOF 10
ENDMDL
MODEL 8
REMARK VINA RESULT:    -8.285      2.576      3.964
REMARK INTER + INTRA:         -14.433
REMARK INTER:                 -13.404
REMARK INTRA:                  -1.029
REMARK UNBOUND:                -1.304
REMARK SMILES COc1cc(Nc2c(C#N)cnc3cc(OCCCN4CCN(C)CC4)c(OC)cc23)c(Cl)cc1Cl
REMARK SMILES IDX 16 1 15 2 7 3 8 4 31 5 11 6 13 7 30 8 12 9 14 10 27 11 6 12
REMARK SMILES IDX 5 14 3 15 4 16 35 17 34 18 36 19 32 20 33 21 2 22 1 23 9 24
REMARK SMILES IDX 10 25 28 26 29 27 17 28 18 29 19 30 20 31 21 32 26 33 22 34
REMARK SMILES IDX 25 35 23 36 24 37
REMARK H PARENT 6 13
REMARK Flexibility Score: inf
ROOT
ATOM      1  O   UNL     1      16.277  33.735  11.394  1.00  0.00    -0.490 OA
ENDROOT
BRANCH   1   2
ATOM      2  C   UNL     1      16.863  33.837  12.664  1.00  0.00     0.163 A 
ATOM      3  C   UNL     1      18.644  34.068  16.507  1.00  0.00     0.068 A 
ATOM      4  C   UNL     1      17.922  34.716  17.529  1.00  0.00     0.094 A 
ATOM      5  C   UNL     1      18.069  33.968  15.215  1.00  0.00     0.029 A 
ATOM      6  C   UNL     1      16.648  35.225  17.261  1.00  0.00     0.133 A 
ATOM      7  C   UNL     1      16.781  34.508  15.001  1.00  0.00     0.076 A 
ATOM      8  C   UNL     1      18.741  33.369  14.132  1.00  0.00     0.063 A 
ATOM      9  N   UNL     1      16.117  35.112  16.019  1.00  0.00    -0.255 NA
ATOM     10  C   UNL     1      16.190  34.447  13.735  1.00  0.00     0.079 A 
ATOM     11  C   UNL     1      18.133  33.281  12.865  1.00  0.00     0.161 A 
BRANCH   3  12
ATOM     12  N   UNL     1      19.960  33.554  16.788  1.00  0.00    -0.353 N 
ATOM     13  H   UNL     1      20.019  32.565  17.121  1.00  0.00     0.167 HD
BRANCH  12  14
ATOM     14  C   UNL     1      21.180  34.260  16.487  1.00  0.00     0.061 A 
ATOM     15  C   UNL     1      22.364  36.054  15.311  1.00  0.00     0.139 A 
ATOM     16  C   UNL     1      21.179  35.341  15.584  1.00  0.00     0.075 A 
ATOM     17  C   UNL     1      23.554  35.666  15.938  1.00  0.00     0.084 A 
ATOM     18  C   UNL     1      23.565  34.585  16.824  1.00  0.00     0.047 A 
ATOM     19  Cl  UNL     1      25.054  36.531  15.631  1.00  0.00    -0.080 Cl
ATOM     20  C   UNL     1      22.391  33.882  17.102  1.00  0.00     0.066 A 
ATOM     21  Cl  UNL     1      22.464  32.557  18.260  1.00  0.00    -0.082 Cl
BRANCH  15  22
ATOM     22  O   UNL     1      22.391  37.150  14.432  1.00  0.00    -0.495 OA
ATOM     23  C   UNL     1      22.828  37.088  13.077  1.00  0.00     0.278 C 
ENDBRANCH  15  22
ENDBRANCH  12  14
ENDBRANCH   3  12
BRANCH   4  24
ATOM     24  C   UNL     1      18.469  34.854  18.856  1.00  0.00     0.103 C 
ATOM     25  N   UNL     1      18.908  34.964  19.920  1.00  0.00    -0.192 NA
ENDBRANCH   4  24
BRANCH  11  26
ATOM     26  O   UNL     1      18.767  32.661  11.777  1.00  0.00    -0.493 OA
ATOM     27  C   UNL     1      20.038  32.019  11.835  1.00  0.00     0.278 C 
ENDBRANCH  11  26
ENDBRANCH   1   2
BRANCH   1  28
ATOM     28  C   UNL     1      16.563  34.620  10.311  1.00  0.00     0.231 C 
BRANCH  28  29
ATOM     29  C   UNL     1      16.394  33.872   8.990  1.00  0.00     0.057 C 
BRANCH  29  30
ATOM     30  C   UNL     1      17.455  32.771   8.834  1.00  0.00     0.088 C 
BRANCH  30  31
ATOM     31  N   UNL     1      16.821  31.494   8.433  1.00  0.00    -0.301 NA
ATOM     32  C   UNL     1      17.564  30.877   7.315  1.00  0.00     0.100 C 
ATOM     33  C   UNL     1      15.409  31.707   8.040  1.00  0.00     0.100 C 
ATOM     34  C   UNL     1      16.911  29.552   6.906  1.00  0.00     0.099 C 
ATOM     35  C   UNL     1      14.761  30.379   7.643  1.00  0.00     0.099 C 
ATOM     36  N   UNL     1      15.505  29.778   6.520  1.00  0.00    -0.304 NA
ATOM     37  C   UNL     1      14.877  28.510   6.120  1.00  0.00     0.105 C 
ENDBRANCH  30  31
ENDBRANCH  29  30
ENDBRANCH  28  29
ENDBRANCH   1  28
TORSDOF 10
ENDMDL
MODEL 9
REMARK VINA RESULT:    -8.281      2.568      4.302
REMARK INTER + INTRA:         -14.426
REMARK INTER:                 -13.528
REMARK INTRA:                  -0.898
REMARK UNBOUND:                -1.304
REMARK SMILES COc1cc(Nc2c(C#N)cnc3cc(OCCCN4CCN(C)CC4)c(OC)cc23)c(Cl)cc1Cl
REMARK SMILES IDX 16 1 15 2 7 3 8 4 31 5 11 6 13 7 30 8 12 9 14 10 27 11 6 12
REMARK SMILES IDX 5 14 3 15 4 16 35 17 34 18 36 19 32 20 33 21 2 22 1 23 9 24
REMARK SMILES IDX 10 25 28 26 29 27 17 28 18 29 19 30 20 31 21 32 26 33 22 34
REMARK SMILES IDX 25 35 23 36 24 37
REMARK H PARENT 6 13
REMARK Flexibility Score: inf
ROOT
ATOM      1  O   UNL     1      17.138  32.907  12.086  1.00  0.00    -0.490 OA
ENDROOT
BRANCH   1   2
ATOM      2  C   UNL     1      17.411  33.668  13.232  1.00  0.00     0.163 A 
ATOM      3  C   UNL     1      18.295  35.920  16.717  1.00  0.00     0.068 A 
ATOM      4  C   UNL     1      17.251  36.147  17.637  1.00  0.00     0.094 A 
ATOM      5  C   UNL     1      18.031  35.163  15.548  1.00  0.00     0.029 A 
ATOM      6  C   UNL     1      15.986  35.604  17.395  1.00  0.00     0.133 A 
ATOM      7  C   UNL     1      16.730  34.646  15.353  1.00  0.00     0.076 A 
ATOM      8  C   UNL     1      19.009  34.923  14.564  1.00  0.00     0.063 A 
ATOM      9  N   UNL     1      15.758  34.878  16.272  1.00  0.00    -0.255 NA
ATOM     10  C   UNL     1      16.426  33.912  14.202  1.00  0.00     0.079 A 
ATOM     11  C   UNL     1      18.711  34.158  13.420  1.00  0.00     0.161 A 
BRANCH   3  12
ATOM     12  N   UNL     1      19.593  36.490  16.968  1.00  0.00    -0.353 N 
ATOM     13  H   UNL     1      19.677  37.528  16.892  1.00  0.00     0.167 HD
BRANCH  12  14
ATOM     14  C   UNL     1      20.718  35.737  17.467  1.00  0.00     0.061 A 
ATOM     15  C   UNL     1      22.267  33.849  17.273  1.00  0.00     0.139 A 
ATOM     16  C   UNL     1      21.150  34.570  16.807  1.00  0.00     0.075 A 
ATOM     17  C   UNL     1      22.942  34.298  18.415  1.00  0.00     0.084 A 
ATOM     18  C   UNL     1      22.510  35.448  19.082  1.00  0.00     0.047 A 
ATOM     19  Cl  UNL     1      24.345  33.433  19.027  1.00  0.00    -0.080 Cl
ATOM     20  C   UNL     1      21.408  36.168  18.618  1.00  0.00     0.066 A 
ATOM     21  Cl  UNL     1      20.942  37.631  19.480  1.00  0.00    -0.082 Cl
BRANCH  15  22
ATOM     22  O   UNL     1      22.734  32.693  16.626  1.00  0.00    -0.495 OA
ATOM     23  C   UNL     1      23.666  32.691  15.547  1.00  0.00     0.278 C 
ENDBRANCH  15  22
ENDBRANCH  12  14
ENDBRANCH   3  12
BRANCH   4  24
ATOM     24  C   UNL     1      17.467  36.921  18.833  1.00  0.00     0.103 C 
ATOM     25  N   UNL     1      17.639  37.542  19.793  1.00  0.00    -0.192 NA
ENDBRANCH   4  24
BRANCH  11  26
ATOM     26  O   UNL     1      19.675  33.877  12.440  1.00  0.00    -0.493 OA
ATOM     27  C   UNL     1      21.083  33.897  12.657  1.00  0.00     0.278 C 
ENDBRANCH  11  26
ENDBRANCH   1   2
BRANCH   1  28
ATOM     28  C   UNL     1      16.352  33.372  10.990  1.00  0.00     0.231 C 
BRANCH  28  29
ATOM     29  C   UNL     1      17.209  33.391   9.726  1.00  0.00     0.057 C 
BRANCH  29  30
ATOM     30  C   UNL     1      16.340  33.534   8.466  1.00  0.00     0.088 C 
BRANCH  30  31
ATOM     31  N   UNL     1      16.435  32.313   7.631  1.00  0.00    -0.301 NA
ATOM     32  C   UNL     1      15.383  31.347   8.008  1.00  0.00     0.100 C 
ATOM     33  C   UNL     1      17.768  31.683   7.769  1.00  0.00     0.100 C 
ATOM     34  C   UNL     1      15.477  30.088   7.139  1.00  0.00     0.099 C 
ATOM     35  C   UNL     1      17.858  30.432   6.891  1.00  0.00     0.099 C 
ATOM     36  N   UNL     1      16.810  29.472   7.283  1.00  0.00    -0.304 NA
ATOM     37  C   UNL     1      16.902  28.259   6.456  1.00  0.00     0.105 C 
ENDBRANCH  30  31
ENDBRANCH  29  30
ENDBRANCH  28  29
ENDBRANCH   1  28
TORSDOF 10
ENDMDL
MODEL 10
REMARK VINA RESULT:    -8.268      5.210      9.667
REMARK INTER + INTRA:         -14.406
REMARK INTER:                 -13.200
REMARK INTRA:                  -1.206
REMARK UNBOUND:                -1.304
REMARK SMILES COc1cc(Nc2c(C#N)cnc3cc(OCCCN4CCN(C)CC4)c(OC)cc23)c(Cl)cc1Cl
REMARK SMILES IDX 16 1 15 2 7 3 8 4 31 5 11 6 13 7 30 8 12 9 14 10 27 11 6 12
REMARK SMILES IDX 5 14 3 15 4 16 35 17 34 18 36 19 32 20 33 21 2 22 1 23 9 24
REMARK SMILES IDX 10 25 28 26 29 27 17 28 18 29 19 30 20 31 21 32 26 33 22 34
REMARK SMILES IDX 25 35 23 36 24 37
REMARK H PARENT 6 13
REMARK Flexibility Score: inf
ROOT
ATOM      1  O   UNL     1      25.682  33.772  12.664  1.00  0.00    -0.490 OA
ENDROOT
BRANCH   1   2
ATOM      2  C   UNL     1      24.438  33.890  13.299  1.00  0.00     0.163 A 
ATOM      3  C   UNL     1      20.676  34.325  15.214  1.00  0.00     0.068 A 
ATOM      4  C   UNL     1      20.512  33.734  16.483  1.00  0.00     0.094 A 
ATOM      5  C   UNL     1      21.926  34.204  14.555  1.00  0.00     0.029 A 
ATOM      6  C   UNL     1      21.583  33.063  17.078  1.00  0.00     0.133 A 
ATOM      7  C   UNL     1      22.970  33.506  15.202  1.00  0.00     0.076 A 
ATOM      8  C   UNL     1      22.159  34.734  13.271  1.00  0.00     0.063 A 
ATOM      9  N   UNL     1      22.771  32.965  16.430  1.00  0.00    -0.255 NA
ATOM     10  C   UNL     1      24.210  33.349  14.574  1.00  0.00     0.079 A 
ATOM     11  C   UNL     1      23.417  34.600  12.652  1.00  0.00     0.161 A 
BRANCH   3  12
ATOM     12  N   UNL     1      19.565  35.008  14.602  1.00  0.00    -0.353 N 
ATOM     13  H   UNL     1      19.579  36.052  14.630  1.00  0.00     0.167 HD
BRANCH  12  14
ATOM     14  C   UNL     1      18.543  34.347  13.830  1.00  0.00     0.061 A 
ATOM     15  C   UNL     1      17.892  32.797  12.047  1.00  0.00     0.139 A 
ATOM     16  C   UNL     1      18.888  33.469  12.784  1.00  0.00     0.075 A 
ATOM     17  C   UNL     1      16.545  33.022  12.357  1.00  0.00     0.084 A 
ATOM     18  C   UNL     1      16.196  33.904  13.383  1.00  0.00     0.047 A 
ATOM     19  Cl  UNL     1      15.271  32.201  11.466  1.00  0.00    -0.080 Cl
ATOM     20  C   UNL     1      17.181  34.564  14.119  1.00  0.00     0.066 A 
ATOM     21  Cl  UNL     1      16.674  35.628  15.429  1.00  0.00    -0.082 Cl
BRANCH  15  22
ATOM     22  O   UNL     1      18.205  31.900  11.012  1.00  0.00    -0.495 OA
ATOM     23  C   UNL     1      18.173  32.224   9.625  1.00  0.00     0.278 C 
ENDBRANCH  15  22
ENDBRANCH  12  14
ENDBRANCH   3  12
BRANCH   4  24
ATOM     24  C   UNL     1      19.257  33.819  17.187  1.00  0.00     0.103 C 
ATOM     25  N   UNL     1      18.250  33.887  17.751  1.00  0.00    -0.192 NA
ENDBRANCH   4  24
BRANCH  11  26
ATOM     26  O   UNL     1      23.686  35.145  11.387  1.00  0.00    -0.493 OA
ATOM     27  C   UNL     1      24.012  36.512  11.144  1.00  0.00     0.278 C 
ENDBRANCH  11  26
ENDBRANCH   1   2
BRANCH   1  28
ATOM     28  C   UNL     1      26.010  32.734  11.741  1.00  0.00     0.231 C 
BRANCH  28  29
ATOM     29  C   UNL     1      27.507  32.442  11.822  1.00  0.00     0.057 C 
BRANCH  29  30
ATOM     30  C   UNL     1      27.778  30.929  11.865  1.00  0.00     0.088 C 
BRANCH  30  31
ATOM     31  N   UNL     1      28.770  30.610  12.918  1.00  0.00    -0.301 NA
ATOM     32  C   UNL     1      28.883  31.728  13.877  1.00  0.00     0.100 C 
ATOM     33  C   UNL     1      30.095  30.323  12.323  1.00  0.00     0.100 C 
ATOM     34  C   UNL     1      29.904  31.394  14.969  1.00  0.00     0.099 C 
ATOM     35  C   UNL     1      31.108  29.981  13.419  1.00  0.00     0.099 C 
ATOM     36  N   UNL     1      31.219  31.108  14.364  1.00  0.00    -0.304 NA
ATOM     37  C   UNL     1      32.204  30.794  15.410  1.00  0.00     0.105 C 
ENDBRANCH  30  31
ENDBRANCH  29  30
ENDBRANCH  28  29
ENDBRANCH   1  28
TORSDOF 10
ENDMDL
MODEL 11
REMARK VINA RESULT:    -8.042      1.907      2.733
REMARK INTER + INTRA:         -14.047
REMARK INTER:                 -14.100
REMARK INTRA:                   0.053
REMARK UNBOUND:                -1.304
REMARK SMILES COc1cc(Nc2c(C#N)cnc3cc(OCCCN4CCN(C)CC4)c(OC)cc23)c(Cl)cc1Cl
REMARK SMILES IDX 16 1 15 2 7 3 8 4 31 5 11 6 13 7 30 8 12 9 14 10 27 11 6 12
REMARK SMILES IDX 5 14 3 15 4 16 35 17 34 18 36 19 32 20 33 21 2 22 1 23 9 24
REMARK SMILES IDX 10 25 28 26 29 27 17 28 18 29 19 30 20 31 21 32 26 33 22 34
REMARK SMILES IDX 25 35 23 36 24 37
REMARK H PARENT 6 13
REMARK Flexibility Score: inf
ROOT
ATOM      1  O   UNL     1      18.488  33.237  10.569  1.00  0.00    -0.490 OA
ENDROOT
BRANCH   1   2
ATOM      2  C   UNL     1      18.986  33.395  11.870  1.00  0.00     0.163 A 
ATOM      3  C   UNL     1      20.435  33.920  15.823  1.00  0.00     0.068 A 
ATOM      4  C   UNL     1      21.762  34.364  15.983  1.00  0.00     0.094 A 
ATOM      5  C   UNL     1      19.921  33.745  14.513  1.00  0.00     0.029 A 
ATOM      6  C   UNL     1      22.539  34.646  14.856  1.00  0.00     0.133 A 
ATOM      7  C   UNL     1      20.755  34.038  13.411  1.00  0.00     0.076 A 
ATOM      8  C   UNL     1      18.618  33.270  14.268  1.00  0.00     0.063 A 
ATOM      9  N   UNL     1      22.024  34.476  13.613  1.00  0.00    -0.255 NA
ATOM     10  C   UNL     1      20.290  33.857  12.104  1.00  0.00     0.079 A 
ATOM     11  C   UNL     1      18.140  33.116  12.952  1.00  0.00     0.161 A 
BRANCH   3  12
ATOM     12  N   UNL     1      19.643  33.623  16.988  1.00  0.00    -0.353 N 
ATOM     13  H   UNL     1      20.053  32.957  17.681  1.00  0.00     0.167 HD
BRANCH  12  14
ATOM     14  C   UNL     1      18.416  34.303  17.321  1.00  0.00     0.061 A 
ATOM     15  C   UNL     1      15.968  34.406  17.301  1.00  0.00     0.139 A 
ATOM     16  C   UNL     1      17.170  33.760  16.950  1.00  0.00     0.075 A 
ATOM     17  C   UNL     1      16.022  35.610  18.015  1.00  0.00     0.084 A 
ATOM     18  C   UNL     1      17.256  36.162  18.373  1.00  0.00     0.047 A 
ATOM     19  Cl  UNL     1      14.547  36.446  18.477  1.00  0.00    -0.080 Cl
ATOM     20  C   UNL     1      18.448  35.519  18.033  1.00  0.00     0.066 A 
ATOM     21  Cl  UNL     1      19.966  36.245  18.553  1.00  0.00    -0.082 Cl
BRANCH  15  22
ATOM     22  O   UNL     1      14.710  33.879  16.963  1.00  0.00    -0.495 OA
ATOM     23  C   UNL     1      13.978  34.223  15.790  1.00  0.00     0.278 C 
ENDBRANCH  15  22
ENDBRANCH  12  14
ENDBRANCH   3  12
BRANCH   4  24
ATOM     24  C   UNL     1      22.334  34.545  17.294  1.00  0.00     0.103 C 
ATOM     25  N   UNL     1      22.793  34.690  18.346  1.00  0.00    -0.192 NA
ENDBRANCH   4  24
BRANCH  11  26
ATOM     26  O   UNL     1      16.836  32.675  12.680  1.00  0.00    -0.493 OA
ATOM     27  C   UNL     1      15.661  33.467  12.839  1.00  0.00     0.278 C 
ENDBRANCH  11  26
ENDBRANCH   1   2
BRANCH   1  28
ATOM     28  C   UNL     1      17.374  33.962  10.048  1.00  0.00     0.231 C 
BRANCH  28  29
ATOM     29  C   UNL     1      16.995  33.392   8.682  1.00  0.00     0.057 C 
BRANCH  29  30
ATOM     30  C   UNL     1      17.826  32.142   8.350  1.00  0.00     0.088 C 
BRANCH  30  31
ATOM     31  N   UNL     1      16.938  30.986   8.086  1.00  0.00    -0.301 NA
ATOM     32  C   UNL     1      17.471  30.169   6.976  1.00  0.00     0.100 C 
ATOM     33  C   UNL     1      15.566  31.438   7.762  1.00  0.00     0.100 C 
ATOM     34  C   UNL     1      16.556  28.969   6.708  1.00  0.00     0.099 C 
ATOM     35  C   UNL     1      14.656  30.235   7.505  1.00  0.00     0.099 C 
ATOM     36  N   UNL     1      15.192  29.433   6.390  1.00  0.00    -0.304 NA
ATOM     37  C   UNL     1      14.313  28.285   6.125  1.00  0.00     0.105 C 
ENDBRANCH  30  31
ENDBRANCH  29  30
ENDBRANCH  28  29
ENDBRANCH   1  28
TORSDOF 10
ENDMDL
MODEL 12
REMARK VINA RESULT:    -7.912      2.231      3.634
REMARK INTER + INTRA:         -13.841
REMARK INTER:                 -12.892
REMARK INTRA:                  -0.949
REMARK UNBOUND:                -1.304
REMARK SMILES COc1cc(Nc2c(C#N)cnc3cc(OCCCN4CCN(C)CC4)c(OC)cc23)c(Cl)cc1Cl
REMARK SMILES IDX 16 1 15 2 7 3 8 4 31 5 11 6 13 7 30 8 12 9 14 10 27 11 6 12
REMARK SMILES IDX 5 14 3 15 4 16 35 17 34 18 36 19 32 20 33 21 2 22 1 23 9 24
REMARK SMILES IDX 10 25 28 26 29 27 17 28 18 29 19 30 20 31 21 32 26 33 22 34
REMARK SMILES IDX 25 35 23 36 24 37
REMARK H PARENT 6 13
REMARK Flexibility Score: inf
ROOT
ATOM      1  O   UNL     1      19.206  32.804  11.285  1.00  0.00    -0.490 OA
ENDROOT
BRANCH   1   2
ATOM      2  C   UNL     1      18.806  33.240  12.556  1.00  0.00     0.163 A 
ATOM      3  C   UNL     1      17.604  34.488  16.429  1.00  0.00     0.068 A 
ATOM      4  C   UNL     1      16.370  35.157  16.551  1.00  0.00     0.094 A 
ATOM      5  C   UNL     1      18.026  34.051  15.148  1.00  0.00     0.029 A 
ATOM      6  C   UNL     1      15.576  35.358  15.419  1.00  0.00     0.133 A 
ATOM      7  C   UNL     1      17.185  34.289  14.038  1.00  0.00     0.076 A 
ATOM      8  C   UNL     1      19.262  33.408  14.937  1.00  0.00     0.063 A 
ATOM      9  N   UNL     1      15.999  34.926  14.205  1.00  0.00    -0.255 NA
ATOM     10  C   UNL     1      17.578  33.891  12.756  1.00  0.00     0.079 A 
ATOM     11  C   UNL     1      19.643  32.981  13.650  1.00  0.00     0.161 A 
BRANCH   3  12
ATOM     12  N   UNL     1      18.421  34.292  17.599  1.00  0.00    -0.353 N 
ATOM     13  H   UNL     1      18.285  33.401  18.126  1.00  0.00     0.167 HD
BRANCH  12  14
ATOM     14  C   UNL     1      19.503  35.165  17.978  1.00  0.00     0.061 A 
ATOM     15  C   UNL     1      21.522  36.426  17.397  1.00  0.00     0.139 A 
ATOM     16  C   UNL     1      20.481  35.548  17.039  1.00  0.00     0.075 A 
ATOM     17  C   UNL     1      21.586  36.909  18.710  1.00  0.00     0.084 A 
ATOM     18  C   UNL     1      20.628  36.522  19.651  1.00  0.00     0.047 A 
ATOM     19  Cl  UNL     1      22.866  38.012  19.199  1.00  0.00    -0.080 Cl
ATOM     20  C   UNL     1      19.591  35.658  19.296  1.00  0.00     0.066 A 
ATOM     21  Cl  UNL     1      18.392  35.245  20.518  1.00  0.00    -0.082 Cl
BRANCH  15  22
ATOM     22  O   UNL     1      22.500  36.842  16.478  1.00  0.00    -0.495 OA
ATOM     23  C   UNL     1      22.595  36.377  15.134  1.00  0.00     0.278 C 
ENDBRANCH  15  22
ENDBRANCH  12  14
ENDBRANCH   3  12
BRANCH   4  24
ATOM     24  C   UNL     1      15.903  35.631  17.830  1.00  0.00     0.103 C 
ATOM     25  N   UNL     1      15.527  36.011  18.855  1.00  0.00    -0.192 NA
ENDBRANCH   4  24
BRANCH  11  26
ATOM     26  O   UNL     1      20.853  32.310  13.416  1.00  0.00    -0.493 OA
ATOM     27  C   UNL     1      22.092  32.949  13.121  1.00  0.00     0.278 C 
ENDBRANCH  11  26
ENDBRANCH   1   2
BRANCH   1  28
ATOM     28  C   UNL     1      18.392  32.010  10.422  1.00  0.00     0.231 C 
BRANCH  28  29
ATOM     29  C   UNL     1      17.785  32.901   9.340  1.00  0.00     0.057 C 
BRANCH  29  30
ATOM     30  C   UNL     1      17.932  32.267   7.948  1.00  0.00     0.088 C 
BRANCH  30  31
ATOM     31  N   UNL     1      17.071  31.067   7.832  1.00  0.00    -0.301 NA
ATOM     32  C   UNL     1      17.496  30.234   6.689  1.00  0.00     0.100 C 
ATOM     33  C   UNL     1      15.650  31.452   7.671  1.00  0.00     0.100 C 
ATOM     34  C   UNL     1      16.609  28.990   6.574  1.00  0.00     0.099 C 
ATOM     35  C   UNL     1      14.769  30.205   7.568  1.00  0.00     0.099 C 
ATOM     36  N   UNL     1      15.196  29.388   6.417  1.00  0.00    -0.304 NA
ATOM     37  C   UNL     1      14.342  28.196   6.300  1.00  0.00     0.105 C 
ENDBRANCH  30  31
ENDBRANCH  29  30
ENDBRANCH  28  29
ENDBRANCH   1  28
TORSDOF 10
ENDMDL
MODEL 13
REMARK VINA RESULT:    -7.867      4.336      7.579
REMARK INTER + INTRA:         -13.770
REMARK INTER:                 -12.539
REMARK INTRA:                  -1.231
REMARK UNBOUND:                -1.304
REMARK SMILES COc1cc(Nc2c(C#N)cnc3cc(OCCCN4CCN(C)CC4)c(OC)cc23)c(Cl)cc1Cl
REMARK SMILES IDX 16 1 15 2 7 3 8 4 31 5 11 6 13 7 30 8 12 9 14 10 27 11 6 12
REMARK SMILES IDX 5 14 3 15 4 16 35 17 34 18 36 19 32 20 33 21 2 22 1 23 9 24
REMARK SMILES IDX 10 25 28 26 29 27 17 28 18 29 19 30 20 31 21 32 26 33 22 34
REMARK SMILES IDX 25 35 23 36 24 37
REMARK H PARENT 6 13
REMARK Flexibility Score: inf
ROOT
ATOM      1  O   UNL     1      23.080  32.725  12.347  1.00  0.00    -0.490 OA
ENDROOT
BRANCH   1   2
ATOM      2  C   UNL     1      21.799  32.963  12.865  1.00  0.00     0.163 A 
ATOM      3  C   UNL     1      17.922  33.612  14.461  1.00  0.00     0.068 A 
ATOM      4  C   UNL     1      16.902  34.005  13.572  1.00  0.00     0.094 A 
ATOM      5  C   UNL     1      19.225  33.378  13.954  1.00  0.00     0.029 A 
ATOM      6  C   UNL     1      17.183  34.136  12.209  1.00  0.00     0.133 A 
ATOM      7  C   UNL     1      19.452  33.534  12.568  1.00  0.00     0.076 A 
ATOM      8  C   UNL     1      20.306  33.018  14.781  1.00  0.00     0.063 A 
ATOM      9  N   UNL     1      18.436  33.902  11.747  1.00  0.00    -0.255 NA
ATOM     10  C   UNL     1      20.729  33.333  12.034  1.00  0.00     0.079 A 
ATOM     11  C   UNL     1      21.585  32.787  14.238  1.00  0.00     0.161 A 
BRANCH   3  12
ATOM     12  N   UNL     1      17.627  33.487  15.865  1.00  0.00    -0.353 N 
ATOM     13  H   UNL     1      17.490  32.520  16.236  1.00  0.00     0.167 HD
BRANCH  12  14
ATOM     14  C   UNL     1      17.670  34.588  16.796  1.00  0.00     0.061 A 
ATOM     15  C   UNL     1      18.858  36.485  17.791  1.00  0.00     0.139 A 
ATOM     16  C   UNL     1      18.823  35.390  16.906  1.00  0.00     0.075 A 
ATOM     17  C   UNL     1      17.733  36.764  18.578  1.00  0.00     0.084 A 
ATOM     18  C   UNL     1      16.592  35.963  18.484  1.00  0.00     0.047 A 
ATOM     19  Cl  UNL     1      17.732  38.124  19.692  1.00  0.00    -0.080 Cl
ATOM     20  C   UNL     1      16.552  34.882  17.602  1.00  0.00     0.066 A 
ATOM     21  Cl  UNL     1      15.068  33.940  17.500  1.00  0.00    -0.082 Cl
BRANCH  15  22
ATOM     22  O   UNL     1      19.985  37.316  17.909  1.00  0.00    -0.495 OA
ATOM     23  C   UNL     1      21.222  36.921  18.496  1.00  0.00     0.278 C 
ENDBRANCH  15  22
ENDBRANCH  12  14
ENDBRANCH   3  12
BRANCH   4  24
ATOM     24  C   UNL     1      15.564  34.266  14.041  1.00  0.00     0.103 C 
ATOM     25  N   UNL     1      14.491  34.476  14.419  1.00  0.00    -0.192 NA
ENDBRANCH   4  24
BRANCH  11  26
ATOM     26  O   UNL     1      22.672  32.397  15.035  1.00  0.00    -0.493 OA
ATOM     27  C   UNL     1      23.209  33.163  16.111  1.00  0.00     0.278 C 
ENDBRANCH  11  26
ENDBRANCH   1   2
BRANCH   1  28
ATOM     28  C   UNL     1      24.068  33.740  12.167  1.00  0.00     0.231 C 
BRANCH  28  29
ATOM     29  C   UNL     1      25.421  33.084  11.897  1.00  0.00     0.057 C 
BRANCH  29  30
ATOM     30  C   UNL     1      25.645  31.871  12.814  1.00  0.00     0.088 C 
BRANCH  30  31
ATOM     31  N   UNL     1      26.944  31.226  12.511  1.00  0.00    -0.301 NA
ATOM     32  C   UNL     1      28.031  31.872  13.276  1.00  0.00     0.100 C 
ATOM     33  C   UNL     1      27.241  31.295  11.062  1.00  0.00     0.100 C 
ATOM     34  C   UNL     1      29.373  31.199  12.967  1.00  0.00     0.099 C 
ATOM     35  C   UNL     1      28.578  30.613  10.760  1.00  0.00     0.099 C 
ATOM     36  N   UNL     1      29.656  31.272  11.521  1.00  0.00    -0.304 NA
ATOM     37  C   UNL     1      30.946  30.634  11.222  1.00  0.00     0.105 C 
ENDBRANCH  30  31
ENDBRANCH  29  30
ENDBRANCH  28  29
ENDBRANCH   1  28
TORSDOF 10
ENDMDL
MODEL 14
REMARK VINA RESULT:    -7.794      4.555      8.656
REMARK INTER + INTRA:         -13.654
REMARK INTER:                 -12.211
REMARK INTRA:                  -1.443
REMARK UNBOUND:                -1.304
REMARK SMILES COc1cc(Nc2c(C#N)cnc3cc(OCCCN4CCN(C)CC4)c(OC)cc23)c(Cl)cc1Cl
REMARK SMILES IDX 16 1 15 2 7 3 8 4 31 5 11 6 13 7 30 8 12 9 14 10 27 11 6 12
REMARK SMILES IDX 5 14 3 15 4 16 35 17 34 18 36 19 32 20 33 21 2 22 1 23 9 24
REMARK SMILES IDX 10 25 28 26 29 27 17 28 18 29 19 30 20 31 21 32 26 33 22 34
REMARK SMILES IDX 25 35 23 36 24 37
REMARK H PARENT 6 13
REMARK Flexibility Score: inf
ROOT
ATOM      1  O   UNL     1      25.522  36.561  14.024  1.00  0.00    -0.490 OA
ENDROOT
BRANCH   1   2
ATOM      2  C   UNL     1      24.269  36.310  14.600  1.00  0.00     0.163 A 
ATOM      3  C   UNL     1      20.462  35.624  16.342  1.00  0.00     0.068 A 
ATOM      4  C   UNL     1      20.413  34.918  17.561  1.00  0.00     0.094 A 
ATOM      5  C   UNL     1      21.721  35.876  15.742  1.00  0.00     0.029 A 
ATOM      6  C   UNL     1      21.601  34.501  18.167  1.00  0.00     0.133 A 
ATOM      7  C   UNL     1      22.888  35.423  16.397  1.00  0.00     0.076 A 
ATOM      8  C   UNL     1      21.852  36.542  14.508  1.00  0.00     0.063 A 
ATOM      9  N   UNL     1      22.795  34.758  17.576  1.00  0.00    -0.255 NA
ATOM     10  C   UNL     1      24.147  35.635  15.825  1.00  0.00     0.079 A 
ATOM     11  C   UNL     1      23.121  36.781  13.947  1.00  0.00     0.161 A 
BRANCH   3  12
ATOM     12  N   UNL     1      19.233  36.044  15.719  1.00  0.00    -0.353 N 
ATOM     13  H   UNL     1      18.947  37.038  15.860  1.00  0.00     0.167 HD
BRANCH  12  14
ATOM     14  C   UNL     1      18.480  35.229  14.799  1.00  0.00     0.061 A 
ATOM     15  C   UNL     1      18.386  33.791  12.816  1.00  0.00     0.139 A 
ATOM     16  C   UNL     1      19.112  34.614  13.700  1.00  0.00     0.075 A 
ATOM     17  C   UNL     1      17.015  33.599  13.033  1.00  0.00     0.084 A 
ATOM     18  C   UNL     1      16.379  34.218  14.112  1.00  0.00     0.047 A 
ATOM     19  Cl  UNL     1      16.072  32.576  11.958  1.00  0.00    -0.080 Cl
ATOM     20  C   UNL     1      17.098  35.027  14.993  1.00  0.00     0.066 A 
ATOM     21  Cl  UNL     1      16.245  35.742  16.359  1.00  0.00    -0.082 Cl
BRANCH  15  22
ATOM     22  O   UNL     1      18.992  33.149  11.724  1.00  0.00    -0.495 OA
ATOM     23  C   UNL     1      19.860  32.023  11.828  1.00  0.00     0.278 C 
ENDBRANCH  15  22
ENDBRANCH  12  14
ENDBRANCH   3  12
BRANCH   4  24
ATOM     24  C   UNL     1      19.156  34.627  18.204  1.00  0.00     0.103 C 
ATOM     25  N   UNL     1      18.148  34.392  18.720  1.00  0.00    -0.192 NA
ENDBRANCH   4  24
BRANCH  11  26
ATOM     26  O   UNL     1      23.283  37.470  12.735  1.00  0.00    -0.493 OA
ATOM     27  C   UNL     1      23.393  36.850  11.457  1.00  0.00     0.278 C 
ENDBRANCH  11  26
ENDBRANCH   1   2
BRANCH   1  28
ATOM     28  C   UNL     1      26.519  35.561  13.816  1.00  0.00     0.231 C 
BRANCH  28  29
ATOM     29  C   UNL     1      25.896  34.372  13.088  1.00  0.00     0.057 C 
BRANCH  29  30
ATOM     30  C   UNL     1      26.017  33.084  13.919  1.00  0.00     0.088 C 
BRANCH  30  31
ATOM     31  N   UNL     1      26.849  32.086  13.208  1.00  0.00    -0.301 NA
ATOM     32  C   UNL     1      28.247  32.149  13.681  1.00  0.00     0.100 C 
ATOM     33  C   UNL     1      26.804  32.309  11.744  1.00  0.00     0.100 C 
ATOM     34  C   UNL     1      29.106  31.110  12.950  1.00  0.00     0.099 C 
ATOM     35  C   UNL     1      27.655  31.263  11.020  1.00  0.00     0.099 C 
ATOM     36  N   UNL     1      29.050  31.341  11.493  1.00  0.00    -0.304 NA
ATOM     37  C   UNL     1      29.878  30.351  10.789  1.00  0.00     0.105 C 
ENDBRANCH  30  31
ENDBRANCH  29  30
ENDBRANCH  28  29
ENDBRANCH   1  28
TORSDOF 10
ENDMDL
MODEL 15
REMARK VINA RESULT:    -7.751      3.441      4.520
REMARK INTER + INTRA:         -13.586
REMARK INTER:                 -12.290
REMARK INTRA:                  -1.296
REMARK UNBOUND:                -1.304
REMARK SMILES COc1cc(Nc2c(C#N)cnc3cc(OCCCN4CCN(C)CC4)c(OC)cc23)c(Cl)cc1Cl
REMARK SMILES IDX 16 1 15 2 7 3 8 4 31 5 11 6 13 7 30 8 12 9 14 10 27 11 6 12
REMARK SMILES IDX 5 14 3 15 4 16 35 17 34 18 36 19 32 20 33 21 2 22 1 23 9 24
REMARK SMILES IDX 10 25 28 26 29 27 17 28 18 29 19 30 20 31 21 32 26 33 22 34
REMARK SMILES IDX 25 35 23 36 24 37
REMARK H PARENT 6 13
REMARK Flexibility Score: inf
ROOT
ATOM      1  O   UNL     1      18.657  33.217  12.557  1.00  0.00    -0.490 OA
ENDROOT
BRANCH   1   2
ATOM      2  C   UNL     1      19.871  33.748  13.015  1.00  0.00     0.163 A 
ATOM      3  C   UNL     1      23.510  35.421  14.415  1.00  0.00     0.068 A 
ATOM      4  C   UNL     1      24.617  35.412  13.542  1.00  0.00     0.094 A 
ATOM      5  C   UNL     1      22.278  34.877  13.970  1.00  0.00     0.029 A 
ATOM      6  C   UNL     1      24.478  34.893  12.253  1.00  0.00     0.133 A 
ATOM      7  C   UNL     1      22.200  34.358  12.658  1.00  0.00     0.076 A 
ATOM      8  C   UNL     1      21.137  34.816  14.793  1.00  0.00     0.063 A 
ATOM      9  N   UNL     1      23.288  34.383  11.848  1.00  0.00    -0.255 NA
ATOM     10  C   UNL     1      21.007  33.795  12.191  1.00  0.00     0.079 A 
ATOM     11  C   UNL     1      19.929  34.275  14.312  1.00  0.00     0.161 A 
BRANCH   3  12
ATOM     12  N   UNL     1      23.663  35.950  15.745  1.00  0.00    -0.353 N 
ATOM     13  H   UNL     1      23.533  36.980  15.862  1.00  0.00     0.167 HD
BRANCH  12  14
ATOM     14  C   UNL     1      23.820  35.132  16.922  1.00  0.00     0.061 A 
ATOM     15  C   UNL     1      25.046  33.420  18.174  1.00  0.00     0.139 A 
ATOM     16  C   UNL     1      24.871  34.199  17.013  1.00  0.00     0.075 A 
ATOM     17  C   UNL     1      24.151  33.573  19.241  1.00  0.00     0.084 A 
ATOM     18  C   UNL     1      23.097  34.486  19.151  1.00  0.00     0.047 A 
ATOM     19  Cl  UNL     1      24.336  32.625  20.710  1.00  0.00    -0.080 Cl
ATOM     20  C   UNL     1      22.926  35.264  18.005  1.00  0.00     0.066 A 
ATOM     21  Cl  UNL     1      21.605  36.428  17.974  1.00  0.00    -0.082 Cl
BRANCH  15  22
ATOM     22  O   UNL     1      26.096  32.496  18.303  1.00  0.00    -0.495 OA
ATOM     23  C   UNL     1      27.424  32.831  18.698  1.00  0.00     0.278 C 
ENDBRANCH  15  22
ENDBRANCH  12  14
ENDBRANCH   3  12
BRANCH   4  24
ATOM     24  C   UNL     1      25.893  35.942  13.953  1.00  0.00     0.103 C 
ATOM     25  N   UNL     1      26.917  36.366  14.283  1.00  0.00    -0.192 NA
ENDBRANCH   4  24
BRANCH  11  26
ATOM     26  O   UNL     1      18.768  34.230  15.099  1.00  0.00    -0.493 OA
ATOM     27  C   UNL     1      18.739  33.900  16.485  1.00  0.00     0.278 C 
ENDBRANCH  11  26
ENDBRANCH   1   2
BRANCH   1  28
ATOM     28  C   UNL     1      18.072  33.536  11.295  1.00  0.00     0.231 C 
BRANCH  28  29
ATOM     29  C   UNL     1      18.296  32.376  10.327  1.00  0.00     0.057 C 
BRANCH  29  30
ATOM     30  C   UNL     1      17.608  32.635   8.978  1.00  0.00     0.088 C 
BRANCH  30  31
ATOM     31  N   UNL     1      16.875  31.427   8.530  1.00  0.00    -0.301 NA
ATOM     32  C   UNL     1      17.594  30.770   7.419  1.00  0.00     0.100 C 
ATOM     33  C   UNL     1      15.500  31.773   8.103  1.00  0.00     0.100 C 
ATOM     34  C   UNL     1      16.839  29.517   6.962  1.00  0.00     0.099 C 
ATOM     35  C   UNL     1      14.749  30.516   7.657  1.00  0.00     0.099 C 
ATOM     36  N   UNL     1      15.470  29.875   6.542  1.00  0.00    -0.304 NA
ATOM     37  C   UNL     1      14.745  28.676   6.096  1.00  0.00     0.105 C 
ENDBRANCH  30  31
ENDBRANCH  29  30
ENDBRANCH  28  29
ENDBRANCH   1  28
TORSDOF 10
ENDMDL
