MODEL 1
REMARK VINA RESULT:    -4.743      0.000      0.000
REMARK INTER + INTRA:          -6.935
REMARK INTER:                  -6.684
REMARK INTRA:                  -0.251
REMARK UNBOUND:                -0.251
REMARK SMILES C[N+](C)(C)CCCCCC[N+](C)(C)C
REMARK SMILES IDX 7 1 6 2 5 3 2 4 1 5 3 6 4 7 8 8 9 9 10 10 11 11 12 12 13 13
REMARK SMILES IDX 14 14
REMARK H PARENT
REMARK Flexibility Score: inf
ROOT
ATOM      1  C   UNL     1      15.709  32.844   7.650  1.00  0.00     0.006 C 
ENDROOT
BRANCH   1   2
ATOM      2  C   UNL     1      15.345  31.362   7.807  1.00  0.00     0.061 C 
BRANCH   2   3
ATOM      3  C   UNL     1      16.281  30.476   6.951  1.00  0.00     0.263 C 
BRANCH   3   4
ATOM      4  N   UNL     1      15.849  29.052   6.803  1.00  0.00    -0.331 N 
ATOM      5  C   UNL     1      15.371  28.580   8.126  1.00  0.00     0.334 C 
ATOM      6  C   UNL     1      14.735  28.923   5.834  1.00  0.00     0.334 C 
ATOM      7  C   UNL     1      16.977  28.187   6.381  1.00  0.00     0.334 C 
ENDBRANCH   3   4
ENDBRANCH   2   3
ENDBRANCH   1   2
BRANCH   1   8
ATOM      8  C   UNL     1      16.944  33.202   8.486  1.00  0.00     0.006 C 
BRANCH   8   9
ATOM      9  C   UNL     1      16.544  33.869   9.808  1.00  0.00     0.061 C 
BRANCH   9  10
ATOM     10  C   UNL     1      17.797  34.210  10.649  1.00  0.00     0.263 C 
BRANCH  10  11
ATOM     11  N   UNL     1      18.063  33.289  11.798  1.00  0.00    -0.331 N 
ATOM     12  C   UNL     1      18.511  34.037  12.998  1.00  0.00     0.334 C 
ATOM     13  C   UNL     1      19.075  32.264  11.444  1.00  0.00     0.334 C 
ATOM     14  C   UNL     1      16.795  32.595  12.129  1.00  0.00     0.334 C 
ENDBRANCH  10  11
ENDBRANCH   9  10
ENDBRANCH   8   9
ENDBRANCH   1   8
TORSDOF 7
ENDMDL
MODEL 2
REMARK VINA RESULT:    -4.600      3.357      5.139
REMARK INTER + INTRA:          -6.734
REMARK INTER:                  -6.559
REMARK INTRA:                  -0.174
REMARK UNBOUND:                -0.251
REMARK SMILES C[N+](C)(C)CCCCCC[N+](C)(C)C
REMARK SMILES IDX 7 1 6 2 5 3 2 4 1 5 3 6 4 7 8 8 9 9 10 10 11 11 12 12 13 13
REMARK SMILES IDX 14 14
REMARK H PARENT
REMARK Flexibility Score: inf
ROOT
ATOM      1  C   UNL     1      17.169  34.261  12.010  1.00  0.00     0.006 C 
ENDROOT
BRANCH   1   2
ATOM      2  C   UNL     1      16.512  34.105  10.633  1.00  0.00     0.061 C 
BRANCH   2   3
ATOM      3  C   UNL     1      16.962  32.787   9.960  1.00  0.00     0.263 C 
BRANCH   3   4
ATOM      4  N   UNL     1      16.636  32.671   8.504  1.00  0.00    -0.331 N 
ATOM      5  C   UNL     1      16.096  33.977   8.053  1.00  0.00     0.334 C 
ATOM      6  C   UNL     1      17.845  32.367   7.703  1.00  0.00     0.334 C 
ATOM      7  C   UNL     1      15.604  31.634   8.263  1.00  0.00     0.334 C 
ENDBRANCH   3   4
ENDBRANCH   2   3
ENDBRANCH   1   2
BRANCH   1   8
ATOM      8  C   UNL     1      16.197  33.877  13.134  1.00  0.00     0.006 C 
BRANCH   8   9
ATOM      9  C   UNL     1      16.828  34.105  14.513  1.00  0.00     0.061 C 
BRANCH   9  10
ATOM     10  C   UNL     1      15.909  34.981  15.397  1.00  0.00     0.263 C 
BRANCH  10  11
ATOM     11  N   UNL     1      15.869  34.605  16.844  1.00  0.00    -0.331 N 
ATOM     12  C   UNL     1      14.913  33.497  17.088  1.00  0.00     0.334 C 
ATOM     13  C   UNL     1      15.512  35.767  17.694  1.00  0.00     0.334 C 
ATOM     14  C   UNL     1      17.224  34.144  17.232  1.00  0.00     0.334 C 
ENDBRANCH  10  11
ENDBRANCH   9  10
ENDBRANCH   8   9
ENDBRANCH   1   8
TORSDOF 7
ENDMDL
MODEL 3
REMARK VINA RESULT:    -4.587      3.481      6.060
REMARK INTER + INTRA:          -6.716
REMARK INTER:                  -6.337
REMARK INTRA:                  -0.379
REMARK UNBOUND:                -0.251
REMARK SMILES C[N+](C)(C)CCCCCC[N+](C)(C)C
REMARK SMILES IDX 7 1 6 2 5 3 2 4 1 5 3 6 4 7 8 8 9 9 10 10 11 11 12 12 13 13
REMARK SMILES IDX 14 14
REMARK H PARENT
REMARK Flexibility Score: inf
ROOT
ATOM      1  C   UNL     1      17.650  33.222  13.829  1.00  0.00     0.006 C 
ENDROOT
BRANCH   1   2
ATOM      2  C   UNL     1      16.549  33.650  12.851  1.00  0.00     0.061 C 
BRANCH   2   3
ATOM      3  C   UNL     1      16.390  32.609  11.717  1.00  0.00     0.263 C 
BRANCH   3   4
ATOM      4  N   UNL     1      17.038  32.975  10.420  1.00  0.00    -0.331 N 
ATOM      5  C   UNL     1      17.033  34.455  10.310  1.00  0.00     0.334 C 
ATOM      6  C   UNL     1      18.446  32.512  10.370  1.00  0.00     0.334 C 
ATOM      7  C   UNL     1      16.290  32.420   9.267  1.00  0.00     0.334 C 
ENDBRANCH   3   4
ENDBRANCH   2   3
ENDBRANCH   1   2
BRANCH   1   8
ATOM      8  C   UNL     1      18.127  34.408  14.678  1.00  0.00     0.006 C 
BRANCH   8   9
ATOM      9  C   UNL     1      16.966  35.353  15.011  1.00  0.00     0.061 C 
BRANCH   9  10
ATOM     10  C   UNL     1      16.562  35.221  16.499  1.00  0.00     0.263 C 
BRANCH  10  11
ATOM     11  N   UNL     1      15.137  34.836  16.741  1.00  0.00    -0.331 N 
ATOM     12  C   UNL     1      15.029  33.432  17.206  1.00  0.00     0.334 C 
ATOM     13  C   UNL     1      14.314  35.021  15.520  1.00  0.00     0.334 C 
ATOM     14  C   UNL     1      14.600  35.721  17.802  1.00  0.00     0.334 C 
ENDBRANCH  10  11
ENDBRANCH   9  10
ENDBRANCH   8   9
ENDBRANCH   1   8
TORSDOF 7
ENDMDL
MODEL 4
REMARK VINA RESULT:    -4.563      2.695      7.575
REMARK INTER + INTRA:          -6.682
REMARK INTER:                  -6.502
REMARK INTRA:                  -0.180
REMARK UNBOUND:                -0.251
REMARK SMILES C[N+](C)(C)CCCCCC[N+](C)(C)C
REMARK SMILES IDX 7 1 6 2 5 3 2 4 1 5 3 6 4 7 8 8 9 9 10 10 11 11 12 12 13 13
REMARK SMILES IDX 14 14
REMARK H PARENT
REMARK Flexibility Score: inf
ROOT
ATOM      1  C   UNL     1      16.137  33.589  12.550  1.00  0.00     0.006 C 
ENDROOT
BRANCH   1   2
ATOM      2  C   UNL     1      16.034  34.204  13.951  1.00  0.00     0.061 C 
BRANCH   2   3
ATOM      3  C   UNL     1      17.350  33.994  14.738  1.00  0.00     0.263 C 
BRANCH   3   4
ATOM      4  N   UNL     1      17.465  34.778  16.006  1.00  0.00    -0.331 N 
ATOM      5  C   UNL     1      16.103  34.934  16.572  1.00  0.00     0.334 C 
ATOM      6  C   UNL     1      18.304  34.071  17.004  1.00  0.00     0.334 C 
ATOM      7  C   UNL     1      18.022  36.129  15.756  1.00  0.00     0.334 C 
ENDBRANCH   3   4
ENDBRANCH   2   3
ENDBRANCH   1   2
BRANCH   1   8
ATOM      8  C   UNL     1      17.295  34.210  11.757  1.00  0.00     0.006 C 
BRANCH   8   9
ATOM      9  C   UNL     1      17.022  34.160  10.249  1.00  0.00     0.061 C 
BRANCH   9  10
ATOM     10  C   UNL     1      16.542  32.751   9.825  1.00  0.00     0.263 C 
BRANCH  10  11
ATOM     11  N   UNL     1      16.397  32.544   8.351  1.00  0.00    -0.331 N 
ATOM     12  C   UNL     1      17.699  32.214   7.721  1.00  0.00     0.334 C 
ATOM     13  C   UNL     1      15.815  33.740   7.693  1.00  0.00     0.334 C 
ATOM     14  C   UNL     1      15.475  31.402   8.140  1.00  0.00     0.334 C 
ENDBRANCH  10  11
ENDBRANCH   9  10
ENDBRANCH   8   9
ENDBRANCH   1   8
TORSDOF 7
ENDMDL
MODEL 5
REMARK VINA RESULT:    -4.544      2.404      7.173
REMARK INTER + INTRA:          -6.655
REMARK INTER:                  -6.331
REMARK INTRA:                  -0.324
REMARK UNBOUND:                -0.251
REMARK SMILES C[N+](C)(C)CCCCCC[N+](C)(C)C
REMARK SMILES IDX 7 1 6 2 5 3 2 4 1 5 3 6 4 7 8 8 9 9 10 10 11 11 12 12 13 13
REMARK SMILES IDX 14 14
REMARK H PARENT
REMARK Flexibility Score: inf
ROOT
ATOM      1  C   UNL     1      16.293  34.100  12.772  1.00  0.00     0.006 C 
ENDROOT
BRANCH   1   2
ATOM      2  C   UNL     1      16.870  34.044  14.192  1.00  0.00     0.061 C 
BRANCH   2   3
ATOM      3  C   UNL     1      18.242  33.329  14.198  1.00  0.00     0.263 C 
BRANCH   3   4
ATOM      4  N   UNL     1      19.349  34.079  14.867  1.00  0.00    -0.331 N 
ATOM      5  C   UNL     1      18.868  35.456  15.138  1.00  0.00     0.334 C 
ATOM      6  C   UNL     1      19.720  33.454  16.160  1.00  0.00     0.334 C 
ATOM      7  C   UNL     1      20.545  34.167  13.996  1.00  0.00     0.334 C 
ENDBRANCH   3   4
ENDBRANCH   2   3
ENDBRANCH   1   2
BRANCH   1   8
ATOM      8  C   UNL     1      17.407  34.239  11.727  1.00  0.00     0.006 C 
BRANCH   8   9
ATOM      9  C   UNL     1      16.839  34.203  10.303  1.00  0.00     0.061 C 
BRANCH   9  10
ATOM     10  C   UNL     1      16.560  32.747   9.862  1.00  0.00     0.263 C 
BRANCH  10  11
ATOM     11  N   UNL     1      16.443  32.540   8.385  1.00  0.00    -0.331 N 
ATOM     12  C   UNL     1      15.527  31.418   8.067  1.00  0.00     0.334 C 
ATOM     13  C   UNL     1      17.769  32.290   7.769  1.00  0.00     0.334 C 
ATOM     14  C   UNL     1      15.882  33.780   7.794  1.00  0.00     0.334 C 
ENDBRANCH  10  11
ENDBRANCH   9  10
ENDBRANCH   8   9
ENDBRANCH   1   8
TORSDOF 7
ENDMDL
MODEL 6
REMARK VINA RESULT:    -4.534      2.430      4.360
REMARK INTER + INTRA:          -6.640
REMARK INTER:                  -6.390
REMARK INTRA:                  -0.250
REMARK UNBOUND:                -0.251
REMARK SMILES C[N+](C)(C)CCCCCC[N+](C)(C)C
REMARK SMILES IDX 7 1 6 2 5 3 2 4 1 5 3 6 4 7 8 8 9 9 10 10 11 11 12 12 13 13
REMARK SMILES IDX 14 14
REMARK H PARENT
REMARK Flexibility Score: inf
ROOT
ATOM      1  C   UNL     1      17.319  34.205  11.699  1.00  0.00     0.006 C 
ENDROOT
BRANCH   1   2
ATOM      2  C   UNL     1      16.879  34.191  10.230  1.00  0.00     0.061 C 
BRANCH   2   3
ATOM      3  C   UNL     1      16.498  32.759   9.787  1.00  0.00     0.263 C 
BRANCH   3   4
ATOM      4  N   UNL     1      16.413  32.552   8.308  1.00  0.00    -0.331 N 
ATOM      5  C   UNL     1      15.801  33.765   7.712  1.00  0.00     0.334 C 
ATOM      6  C   UNL     1      17.757  32.368   7.710  1.00  0.00     0.334 C 
ATOM      7  C   UNL     1      15.557  31.388   7.975  1.00  0.00     0.334 C 
ENDBRANCH   3   4
ENDBRANCH   2   3
ENDBRANCH   1   2
BRANCH   1   8
ATOM      8  C   UNL     1      16.149  33.861  12.631  1.00  0.00     0.006 C 
BRANCH   8   9
ATOM      9  C   UNL     1      16.472  34.227  14.084  1.00  0.00     0.061 C 
BRANCH   9  10
ATOM     10  C   UNL     1      17.852  33.663  14.497  1.00  0.00     0.263 C 
BRANCH  10  11
ATOM     11  N   UNL     1      18.642  34.528  15.427  1.00  0.00    -0.331 N 
ATOM     12  C   UNL     1      18.817  33.881  16.750  1.00  0.00     0.334 C 
ATOM     13  C   UNL     1      18.002  35.855  15.603  1.00  0.00     0.334 C 
ATOM     14  C   UNL     1      19.983  34.735  14.828  1.00  0.00     0.334 C 
ENDBRANCH  10  11
ENDBRANCH   9  10
ENDBRANCH   8   9
ENDBRANCH   1   8
TORSDOF 7
ENDMDL
MODEL 7
REMARK VINA RESULT:    -4.533      3.300      8.373
REMARK INTER + INTRA:          -6.639
REMARK INTER:                  -6.157
REMARK INTRA:                  -0.482
REMARK UNBOUND:                -0.251
REMARK SMILES C[N+](C)(C)CCCCCC[N+](C)(C)C
REMARK SMILES IDX 7 1 6 2 5 3 2 4 1 5 3 6 4 7 8 8 9 9 10 10 11 11 12 12 13 13
REMARK SMILES IDX 14 14
REMARK H PARENT
REMARK Flexibility Score: inf
ROOT
ATOM      1  C   UNL     1      18.339  34.557  13.950  1.00  0.00     0.006 C 
ENDROOT
BRANCH   1   2
ATOM      2  C   UNL     1      18.729  35.021  15.358  1.00  0.00     0.061 C 
BRANCH   2   3
ATOM      3  C   UNL     1      17.609  35.892  15.976  1.00  0.00     0.263 C 
BRANCH   3   4
ATOM      4  N   UNL     1      17.049  35.386  17.267  1.00  0.00    -0.331 N 
ATOM      5  C   UNL     1      17.874  34.233  17.702  1.00  0.00     0.334 C 
ATOM      6  C   UNL     1      17.107  36.424  18.325  1.00  0.00     0.334 C 
ATOM      7  C   UNL     1      15.650  34.922  17.104  1.00  0.00     0.334 C 
ENDBRANCH   3   4
ENDBRANCH   2   3
ENDBRANCH   1   2
BRANCH   1   8
ATOM      8  C   UNL     1      17.199  33.531  14.000  1.00  0.00     0.006 C 
BRANCH   8   9
ATOM      9  C   UNL     1      16.201  33.755  12.858  1.00  0.00     0.061 C 
BRANCH   9  10
ATOM     10  C   UNL     1      16.344  32.652  11.782  1.00  0.00     0.263 C 
BRANCH  10  11
ATOM     11  N   UNL     1      17.058  33.067  10.535  1.00  0.00    -0.331 N 
ATOM     12  C   UNL     1      16.418  32.489   9.328  1.00  0.00     0.334 C 
ATOM     13  C   UNL     1      18.488  32.674  10.576  1.00  0.00     0.334 C 
ATOM     14  C   UNL     1      16.985  34.545  10.438  1.00  0.00     0.334 C 
ENDBRANCH  10  11
ENDBRANCH   9  10
ENDBRANCH   8   9
ENDBRANCH   1   8
TORSDOF 7
ENDMDL
MODEL 8
REMARK VINA RESULT:    -4.515      3.137      4.912
REMARK INTER + INTRA:          -6.614
REMARK INTER:                  -6.406
REMARK INTRA:                  -0.208
REMARK UNBOUND:                -0.251
REMARK SMILES C[N+](C)(C)CCCCCC[N+](C)(C)C
REMARK SMILES IDX 7 1 6 2 5 3 2 4 1 5 3 6 4 7 8 8 9 9 10 10 11 11 12 12 13 13
REMARK SMILES IDX 14 14
REMARK H PARENT
REMARK Flexibility Score: inf
ROOT
ATOM      1  C   UNL     1      16.145  33.265  12.240  1.00  0.00     0.006 C 
ENDROOT
BRANCH   1   2
ATOM      2  C   UNL     1      16.500  33.870  10.876  1.00  0.00     0.061 C 
BRANCH   2   3
ATOM      3  C   UNL     1      17.185  32.818   9.973  1.00  0.00     0.263 C 
BRANCH   3   4
ATOM      4  N   UNL     1      16.682  32.762   8.566  1.00  0.00    -0.331 N 
ATOM      5  C   UNL     1      17.834  32.457   7.682  1.00  0.00     0.334 C 
ATOM      6  C   UNL     1      15.671  31.692   8.396  1.00  0.00     0.334 C 
ATOM      7  C   UNL     1      16.106  34.062   8.147  1.00  0.00     0.334 C 
ENDBRANCH   3   4
ENDBRANCH   2   3
ENDBRANCH   1   2
BRANCH   1   8
ATOM      8  C   UNL     1      17.064  33.806  13.343  1.00  0.00     0.006 C 
BRANCH   8   9
ATOM      9  C   UNL     1      16.269  34.598  14.388  1.00  0.00     0.061 C 
BRANCH   9  10
ATOM     10  C   UNL     1      17.223  35.302  15.382  1.00  0.00     0.263 C 
BRANCH  10  11
ATOM     11  N   UNL     1      17.048  34.912  16.816  1.00  0.00    -0.331 N 
ATOM     12  C   UNL     1      16.971  36.105  17.694  1.00  0.00     0.334 C 
ATOM     13  C   UNL     1      18.149  34.028  17.273  1.00  0.00     0.334 C 
ATOM     14  C   UNL     1      15.773  34.165  16.933  1.00  0.00     0.334 C 
ENDBRANCH  10  11
ENDBRANCH   9  10
ENDBRANCH   8   9
ENDBRANCH   1   8
TORSDOF 7
ENDMDL
MODEL 9
REMARK VINA RESULT:    -4.506      3.306      6.012
REMARK INTER + INTRA:          -6.601
REMARK INTER:                  -6.109
REMARK INTRA:                  -0.492
REMARK UNBOUND:                -0.251
REMARK SMILES C[N+](C)(C)CCCCCC[N+](C)(C)C
REMARK SMILES IDX 7 1 6 2 5 3 2 4 1 5 3 6 4 7 8 8 9 9 10 10 11 11 12 12 13 13
REMARK SMILES IDX 14 14
REMARK H PARENT
REMARK Flexibility Score: inf
ROOT
ATOM      1  C   UNL     1      17.214  33.537  14.056  1.00  0.00     0.006 C 
ENDROOT
BRANCH   1   2
ATOM      2  C   UNL     1      16.231  33.756  12.899  1.00  0.00     0.061 C 
BRANCH   2   3
ATOM      3  C   UNL     1      16.404  32.661  11.820  1.00  0.00     0.263 C 
BRANCH   3   4
ATOM      4  N   UNL     1      17.167  33.081  10.604  1.00  0.00    -0.331 N 
ATOM      5  C   UNL     1      16.512  32.469   9.422  1.00  0.00     0.334 C 
ATOM      6  C   UNL     1      17.148  34.554  10.436  1.00  0.00     0.334 C 
ATOM      7  C   UNL     1      18.570  32.605  10.657  1.00  0.00     0.334 C 
ENDBRANCH   3   4
ENDBRANCH   2   3
ENDBRANCH   1   2
BRANCH   1   8
ATOM      8  C   UNL     1      18.378  34.534  13.990  1.00  0.00     0.006 C 
BRANCH   8   9
ATOM      9  C   UNL     1      18.752  35.043  15.387  1.00  0.00     0.061 C 
BRANCH   9  10
ATOM     10  C   UNL     1      17.620  35.921  15.971  1.00  0.00     0.263 C 
BRANCH  10  11
ATOM     11  N   UNL     1      17.046  35.442  17.267  1.00  0.00    -0.331 N 
ATOM     12  C   UNL     1      17.076  36.509  18.297  1.00  0.00     0.334 C 
ATOM     13  C   UNL     1      17.768  34.247  17.767  1.00  0.00     0.334 C 
ATOM     14  C   UNL     1      15.632  35.065  17.028  1.00  0.00     0.334 C 
ENDBRANCH  10  11
ENDBRANCH   9  10
ENDBRANCH   8   9
ENDBRANCH   1   8
TORSDOF 7
ENDMDL
MODEL 10
REMARK VINA RESULT:    -4.492      2.321      6.947
REMARK INTER + INTRA:          -6.581
REMARK INTER:                  -6.228
REMARK INTRA:                  -0.353
REMARK UNBOUND:                -0.251
REMARK SMILES C[N+](C)(C)CCCCCC[N+](C)(C)C
REMARK SMILES IDX 7 1 6 2 5 3 2 4 1 5 3 6 4 7 8 8 9 9 10 10 11 11 12 12 13 13
REMARK SMILES IDX 14 14
REMARK H PARENT
REMARK Flexibility Score: inf
ROOT
ATOM      1  C   UNL     1      16.773  33.776  12.743  1.00  0.00     0.006 C 
ENDROOT
BRANCH   1   2
ATOM      2  C   UNL     1      17.585  33.479  14.010  1.00  0.00     0.061 C 
BRANCH   2   3
ATOM      3  C   UNL     1      18.890  34.310  14.030  1.00  0.00     0.263 C 
BRANCH   3   4
ATOM      4  N   UNL     1      20.146  33.518  14.210  1.00  0.00    -0.331 N 
ATOM      5  C   UNL     1      21.098  33.924  13.147  1.00  0.00     0.334 C 
ATOM      6  C   UNL     1      20.773  33.793  15.525  1.00  0.00     0.334 C 
ATOM      7  C   UNL     1      19.891  32.064  14.075  1.00  0.00     0.334 C 
ENDBRANCH   3   4
ENDBRANCH   2   3
ENDBRANCH   1   2
BRANCH   1   8
ATOM      8  C   UNL     1      17.690  34.177  11.580  1.00  0.00     0.006 C 
BRANCH   8   9
ATOM      9  C   UNL     1      16.923  34.199  10.252  1.00  0.00     0.061 C 
BRANCH   9  10
ATOM     10  C   UNL     1      16.495  32.769   9.844  1.00  0.00     0.263 C 
BRANCH  10  11
ATOM     11  N   UNL     1      16.327  32.550   8.374  1.00  0.00    -0.331 N 
ATOM     12  C   UNL     1      15.750  33.746   7.712  1.00  0.00     0.334 C 
ATOM     13  C   UNL     1      15.474  31.368   8.098  1.00  0.00     0.334 C 
ATOM     14  C   UNL     1      17.669  32.299   7.794  1.00  0.00     0.334 C 
ENDBRANCH  10  11
ENDBRANCH   9  10
ENDBRANCH   8   9
ENDBRANCH   1   8
TORSDOF 7
ENDMDL
MODEL 11
REMARK VINA RESULT:    -4.483      2.400      7.021
REMARK INTER + INTRA:          -6.568
REMARK INTER:                  -6.253
REMARK INTRA:                  -0.315
REMARK UNBOUND:                -0.251
REMARK SMILES C[N+](C)(C)CCCCCC[N+](C)(C)C
REMARK SMILES IDX 7 1 6 2 5 3 2 4 1 5 3 6 4 7 8 8 9 9 10 10 11 11 12 12 13 13
REMARK SMILES IDX 14 14
REMARK H PARENT
REMARK Flexibility Score: inf
ROOT
ATOM      1  C   UNL     1      16.514  34.227  12.883  1.00  0.00     0.006 C 
ENDROOT
BRANCH   1   2
ATOM      2  C   UNL     1      17.224  33.756  14.158  1.00  0.00     0.061 C 
BRANCH   2   3
ATOM      3  C   UNL     1      18.558  33.052  13.813  1.00  0.00     0.263 C 
BRANCH   3   4
ATOM      4  N   UNL     1      19.740  33.500  14.614  1.00  0.00    -0.331 N 
ATOM      5  C   UNL     1      20.940  32.812  14.078  1.00  0.00     0.334 C 
ATOM      6  C   UNL     1      19.950  34.963  14.493  1.00  0.00     0.334 C 
ATOM      7  C   UNL     1      19.593  33.134  16.043  1.00  0.00     0.334 C 
ENDBRANCH   3   4
ENDBRANCH   2   3
ENDBRANCH   1   2
BRANCH   1   8
ATOM      8  C   UNL     1      17.470  34.223  11.684  1.00  0.00     0.006 C 
BRANCH   8   9
ATOM      9  C   UNL     1      16.698  34.201  10.359  1.00  0.00     0.061 C 
BRANCH   9  10
ATOM     10  C   UNL     1      16.534  32.751   9.846  1.00  0.00     0.263 C 
BRANCH  10  11
ATOM     11  N   UNL     1      16.443  32.608   8.360  1.00  0.00    -0.331 N 
ATOM     12  C   UNL     1      17.776  32.356   7.759  1.00  0.00     0.334 C 
ATOM     13  C   UNL     1      15.837  33.811   7.738  1.00  0.00     0.334 C 
ATOM     14  C   UNL     1      15.573  31.444   8.065  1.00  0.00     0.334 C 
ENDBRANCH  10  11
ENDBRANCH   9  10
ENDBRANCH   8   9
ENDBRANCH   1   8
TORSDOF 7
ENDMDL
MODEL 12
REMARK VINA RESULT:    -4.481      2.271      3.905
REMARK INTER + INTRA:          -6.566
REMARK INTER:                  -6.122
REMARK INTRA:                  -0.444
REMARK UNBOUND:                -0.251
REMARK SMILES C[N+](C)(C)CCCCCC[N+](C)(C)C
REMARK SMILES IDX 7 1 6 2 5 3 2 4 1 5 3 6 4 7 8 8 9 9 10 10 11 11 12 12 13 13
REMARK SMILES IDX 14 14
REMARK H PARENT
REMARK Flexibility Score: inf
ROOT
ATOM      1  C   UNL     1      18.200  33.941  11.096  1.00  0.00     0.006 C 
ENDROOT
BRANCH   1   2
ATOM      2  C   UNL     1      18.120  32.726  10.163  1.00  0.00     0.061 C 
BRANCH   2   3
ATOM      3  C   UNL     1      16.654  32.451   9.749  1.00  0.00     0.263 C 
BRANCH   3   4
ATOM      4  N   UNL     1      16.399  32.450   8.275  1.00  0.00    -0.331 N 
ATOM      5  C   UNL     1      15.412  31.382   7.984  1.00  0.00     0.334 C 
ATOM      6  C   UNL     1      15.830  33.743   7.825  1.00  0.00     0.334 C 
ATOM      7  C   UNL     1      17.637  32.160   7.513  1.00  0.00     0.334 C 
ENDBRANCH   3   4
ENDBRANCH   2   3
ENDBRANCH   1   2
BRANCH   1   8
ATOM      8  C   UNL     1      16.984  34.004  12.029  1.00  0.00     0.006 C 
BRANCH   8   9
ATOM      9  C   UNL     1      17.309  33.406  13.403  1.00  0.00     0.061 C 
BRANCH   9  10
ATOM     10  C   UNL     1      18.401  34.236  14.117  1.00  0.00     0.263 C 
BRANCH  10  11
ATOM     11  N   UNL     1      19.622  33.471  14.519  1.00  0.00    -0.331 N 
ATOM     12  C   UNL     1      19.565  32.069  14.035  1.00  0.00     0.334 C 
ATOM     13  C   UNL     1      19.806  33.482  15.991  1.00  0.00     0.334 C 
ATOM     14  C   UNL     1      20.798  34.129  13.898  1.00  0.00     0.334 C 
ENDBRANCH  10  11
ENDBRANCH   9  10
ENDBRANCH   8   9
ENDBRANCH   1   8
TORSDOF 7
ENDMDL
MODEL 13
REMARK VINA RESULT:    -4.434      4.029      8.930
REMARK INTER + INTRA:          -6.500
REMARK INTER:                  -6.091
REMARK INTRA:                  -0.409
REMARK UNBOUND:                -0.251
REMARK SMILES C[N+](C)(C)CCCCCC[N+](C)(C)C
REMARK SMILES IDX 7 1 6 2 5 3 2 4 1 5 3 6 4 7 8 8 9 9 10 10 11 11 12 12 13 13
REMARK SMILES IDX 14 14
REMARK H PARENT
REMARK Flexibility Score: inf
ROOT
ATOM      1  C   UNL     1      15.126  34.530  15.669  1.00  0.00     0.006 C 
ENDROOT
BRANCH   1   2
ATOM      2  C   UNL     1      15.731  34.179  17.034  1.00  0.00     0.061 C 
BRANCH   2   3
ATOM      3  C   UNL     1      16.378  35.426  17.682  1.00  0.00     0.263 C 
BRANCH   3   4
ATOM      4  N   UNL     1      17.821  35.278  18.046  1.00  0.00    -0.331 N 
ATOM      5  C   UNL     1      18.570  36.384  17.402  1.00  0.00     0.334 C 
ATOM      6  C   UNL     1      18.020  35.374  19.512  1.00  0.00     0.334 C 
ATOM      7  C   UNL     1      18.373  33.993  17.553  1.00  0.00     0.334 C 
ENDBRANCH   3   4
ENDBRANCH   2   3
ENDBRANCH   1   2
BRANCH   1   8
ATOM      8  C   UNL     1      16.181  35.137  14.735  1.00  0.00     0.006 C 
BRANCH   8   9
ATOM      9  C   UNL     1      16.836  34.057  13.864  1.00  0.00     0.061 C 
BRANCH   9  10
ATOM     10  C   UNL     1      16.003  33.806  12.585  1.00  0.00     0.263 C 
BRANCH  10  11
ATOM     11  N   UNL     1      16.776  33.844  11.305  1.00  0.00    -0.331 N 
ATOM     12  C   UNL     1      18.236  33.917  11.557  1.00  0.00     0.334 C 
ATOM     13  C   UNL     1      16.359  34.988  10.457  1.00  0.00     0.334 C 
ATOM     14  C   UNL     1      16.494  32.591  10.564  1.00  0.00     0.334 C 
ENDBRANCH  10  11
ENDBRANCH   9  10
ENDBRANCH   8   9
ENDBRANCH   1   8
TORSDOF 7
ENDMDL
MODEL 14
REMARK VINA RESULT:    -4.383      4.160      7.070
REMARK INTER + INTRA:          -6.428
REMARK INTER:                  -6.087
REMARK INTRA:                  -0.341
REMARK UNBOUND:                -0.251
REMARK SMILES C[N+](C)(C)CCCCCC[N+](C)(C)C
REMARK SMILES IDX 7 1 6 2 5 3 2 4 1 5 3 6 4 7 8 8 9 9 10 10 11 11 12 12 13 13
REMARK SMILES IDX 14 14
REMARK H PARENT
REMARK Flexibility Score: inf
ROOT
ATOM      1  C   UNL     1      15.692  34.974  14.901  1.00  0.00     0.006 C 
ENDROOT
BRANCH   1   2
ATOM      2  C   UNL     1      15.871  34.042  13.696  1.00  0.00     0.061 C 
BRANCH   2   3
ATOM      3  C   UNL     1      17.234  34.293  13.009  1.00  0.00     0.263 C 
BRANCH   3   4
ATOM      4  N   UNL     1      17.364  33.732  11.628  1.00  0.00    -0.331 N 
ATOM      5  C   UNL     1      16.472  32.551  11.530  1.00  0.00     0.334 C 
ATOM      6  C   UNL     1      16.944  34.717  10.603  1.00  0.00     0.334 C 
ATOM      7  C   UNL     1      18.753  33.290  11.354  1.00  0.00     0.334 C 
ENDBRANCH   3   4
ENDBRANCH   2   3
ENDBRANCH   1   2
BRANCH   1   8
ATOM      8  C   UNL     1      14.746  34.359  15.940  1.00  0.00     0.006 C 
BRANCH   8   9
ATOM      9  C   UNL     1      15.270  34.577  17.365  1.00  0.00     0.061 C 
BRANCH   9  10
ATOM     10  C   UNL     1      16.801  34.358  17.424  1.00  0.00     0.263 C 
BRANCH  10  11
ATOM     11  N   UNL     1      17.579  35.467  18.057  1.00  0.00    -0.331 N 
ATOM     12  C   UNL     1      18.376  36.211  17.051  1.00  0.00     0.334 C 
ATOM     13  C   UNL     1      18.476  34.957  19.123  1.00  0.00     0.334 C 
ATOM     14  C   UNL     1      16.613  36.408  18.673  1.00  0.00     0.334 C 
ENDBRANCH  10  11
ENDBRANCH   9  10
ENDBRANCH   8   9
ENDBRANCH   1   8
TORSDOF 7
ENDMDL
MODEL 15
REMARK VINA RESULT:    -4.357      3.175      5.572
REMARK INTER + INTRA:          -6.391
REMARK INTER:                  -5.879
REMARK INTRA:                  -0.512
REMARK UNBOUND:                -0.251
REMARK SMILES C[N+](C)(C)CCCCCC[N+](C)(C)C
REMARK SMILES IDX 7 1 6 2 5 3 2 4 1 5 3 6 4 7 8 8 9 9 10 10 11 11 12 12 13 13
REMARK SMILES IDX 14 14
REMARK H PARENT
REMARK Flexibility Score: inf
ROOT
ATOM      1  C   UNL     1      16.504  33.748  14.158  1.00  0.00     0.006 C 
ENDROOT
BRANCH   1   2
ATOM      2  C   UNL     1      15.809  33.799  12.791  1.00  0.00     0.061 C 
BRANCH   2   3
ATOM      3  C   UNL     1      16.368  32.703  11.853  1.00  0.00     0.263 C 
BRANCH   3   4
ATOM      4  N   UNL     1      17.112  33.207  10.657  1.00  0.00    -0.331 N 
ATOM      5  C   UNL     1      16.892  34.672  10.568  1.00  0.00     0.334 C 
ATOM      6  C   UNL     1      18.569  32.963  10.785  1.00  0.00     0.334 C 
ATOM      7  C   UNL     1      16.611  32.585   9.408  1.00  0.00     0.334 C 
ENDBRANCH   3   4
ENDBRANCH   2   3
ENDBRANCH   1   2
BRANCH   1   8
ATOM      8  C   UNL     1      16.763  35.160  14.700  1.00  0.00     0.006 C 
BRANCH   8   9
ATOM      9  C   UNL     1      18.219  35.321  15.152  1.00  0.00     0.061 C 
BRANCH   9  10
ATOM     10  C   UNL     1      19.170  34.516  14.234  1.00  0.00     0.263 C 
BRANCH  10  11
ATOM     11  N   UNL     1      20.004  33.486  14.927  1.00  0.00    -0.331 N 
ATOM     12  C   UNL     1      19.875  32.159  14.277  1.00  0.00     0.334 C 
ATOM     13  C   UNL     1      19.642  33.375  16.361  1.00  0.00     0.334 C 
ATOM     14  C   UNL     1      21.422  33.912  14.837  1.00  0.00     0.334 C 
ENDBRANCH  10  11
ENDBRANCH   9  10
ENDBRANCH   8   9
ENDBRANCH   1   8
TORSDOF 7
ENDMDL
