MODEL 1
REMARK VINA RESULT:    -9.986      0.000      0.000
REMARK INTER + INTRA:         -13.378
REMARK INTER:                 -13.197
REMARK INTRA:                  -0.182
REMARK UNBOUND:                -0.182
REMARK SMILES C[C@@H](Oc1cc(-c2cnn(C3CCNCC3)c2)cnc1N)c1c(Cl)ccc(F)c1Cl
REMARK SMILES IDX 4 1 5 2 6 3 18 4 19 5 20 6 3 7 2 8 1 9 22 10 23 11 29 12
REMARK SMILES IDX 24 13 25 14 27 15 30 16 26 17 28 18 21 19 7 22 17 23 8 24
REMARK SMILES IDX 10 25 9 26 11 27 12 28 16 29 13 30 15 31 14 32
REMARK H PARENT 21 20 21 21 14 33
REMARK Flexibility Score: inf
ROOT
ATOM      1  C   UNL     1      19.426  33.718  14.354  1.00  0.00     0.162 A 
ATOM      2  C   UNL     1      18.700  33.841  13.156  1.00  0.00     0.061 A 
ATOM      3  C   UNL     1      18.987  33.016  12.055  1.00  0.00     0.007 A 
ATOM      4  C   UNL     1      20.024  32.080  12.182  1.00  0.00     0.122 A 
ATOM      5  N   UNL     1      20.722  31.981  13.344  1.00  0.00    -0.235 NA
ATOM      6  C   UNL     1      20.455  32.766  14.420  1.00  0.00     0.166 A 
ENDROOT
BRANCH   1   7
ATOM      7  O   UNL     1      19.155  34.511  15.483  1.00  0.00    -0.482 OA
BRANCH   7   8
ATOM      8  C   UNL     1      18.450  35.756  15.472  1.00  0.00     0.203 C 
ATOM      9  C   UNL     1      19.404  36.886  15.854  1.00  0.00     0.058 C 
BRANCH   8  10
ATOM     10  C   UNL     1      17.249  35.728  16.414  1.00  0.00     0.032 A 
ATOM     11  C   UNL     1      17.338  36.243  17.737  1.00  0.00     0.049 A 
ATOM     12  C   UNL     1      16.004  35.204  15.976  1.00  0.00     0.085 A 
ATOM     13  Cl  UNL     1      18.805  36.979  18.382  1.00  0.00    -0.084 Cl
ATOM     14  C   UNL     1      16.229  36.190  18.588  1.00  0.00     0.024 A 
ATOM     15  C   UNL     1      14.910  35.159  16.850  1.00  0.00     0.142 A 
ATOM     16  Cl  UNL     1      15.762  34.595  14.337  1.00  0.00    -0.081 Cl
ATOM     17  C   UNL     1      15.026  35.646  18.150  1.00  0.00     0.042 A 
ATOM     18  F   UNL     1      13.724  34.644  16.438  1.00  0.00    -0.205 F 
ENDBRANCH   8  10
ENDBRANCH   7   8
ENDBRANCH   1   7
BRANCH   6  19
ATOM     19  N   UNL     1      21.224  32.597  15.614  1.00  0.00    -0.381 N 
ATOM     20  H   UNL     1      21.962  33.282  15.892  1.00  0.00     0.158 HD
ATOM     21  H   UNL     1      21.053  31.774  16.232  1.00  0.00     0.158 HD
ENDBRANCH   6  19
BRANCH   3  22
ATOM     22  C   UNL     1      18.209  33.132  10.791  1.00  0.00     0.021 A 
ATOM     23  C   UNL     1      18.160  32.231   9.740  1.00  0.00     0.117 A 
ATOM     24  C   UNL     1      17.364  34.164  10.405  1.00  0.00     0.143 A 
ATOM     25  N   UNL     1      17.338  32.727   8.797  1.00  0.00    -0.269 N 
ATOM     26  N   UNL     1      16.843  33.888   9.196  1.00  0.00    -0.181 NA
BRANCH  25  27
ATOM     27  C   UNL     1      16.956  32.049   7.554  1.00  0.00     0.110 C 
ATOM     28  C   UNL     1      15.418  31.945   7.432  1.00  0.00     0.042 C 
ATOM     29  C   UNL     1      17.643  30.669   7.480  1.00  0.00     0.042 C 
ATOM     30  C   UNL     1      14.911  30.570   7.887  1.00  0.00     0.083 C 
ATOM     31  C   UNL     1      16.849  29.712   6.581  1.00  0.00     0.083 C 
ATOM     32  N   UNL     1      15.478  29.470   7.080  1.00  0.00    -0.317 NA
ATOM     33  H   UNL     1      15.486  28.608   7.672  1.00  0.00     0.122 HD
ENDBRANCH  25  27
ENDBRANCH   3  22
TORSDOF 6
ENDMDL
MODEL 2
REMARK VINA RESULT:    -9.774      3.542      4.958
REMARK INTER + INTRA:         -13.098
REMARK INTER:                 -12.219
REMARK INTRA:                  -0.879
REMARK UNBOUND:                -0.182
REMARK SMILES C[C@@H](Oc1cc(-c2cnn(C3CCNCC3)c2)cnc1N)c1c(Cl)ccc(F)c1Cl
REMARK SMILES IDX 4 1 5 2 6 3 18 4 19 5 20 6 3 7 2 8 1 9 22 10 23 11 29 12
REMARK SMILES IDX 24 13 25 14 27 15 30 16 26 17 28 18 21 19 7 22 17 23 8 24
REMARK SMILES IDX 10 25 9 26 11 27 12 28 16 29 13 30 15 31 14 32
REMARK H PARENT 21 20 21 21 14 33
REMARK Flexibility Score: inf
ROOT
ATOM      1  C   UNL     1      18.006  34.193  13.492  1.00  0.00     0.162 A 
ATOM      2  C   UNL     1      18.136  33.573  12.237  1.00  0.00     0.061 A 
ATOM      3  C   UNL     1      16.999  33.197  11.500  1.00  0.00     0.007 A 
ATOM      4  C   UNL     1      15.737  33.447  12.059  1.00  0.00     0.122 A 
ATOM      5  N   UNL     1      15.629  34.040  13.277  1.00  0.00    -0.235 NA
ATOM      6  C   UNL     1      16.717  34.414  14.000  1.00  0.00     0.166 A 
ENDROOT
BRANCH   1   7
ATOM      7  O   UNL     1      19.119  34.601  14.249  1.00  0.00    -0.482 OA
BRANCH   7   8
ATOM      8  C   UNL     1      20.360  33.895  14.344  1.00  0.00     0.203 C 
ATOM      9  C   UNL     1      20.604  33.486  15.795  1.00  0.00     0.058 C 
BRANCH   8  10
ATOM     10  C   UNL     1      21.523  34.736  13.822  1.00  0.00     0.032 A 
ATOM     11  C   UNL     1      21.711  36.080  14.249  1.00  0.00     0.049 A 
ATOM     12  C   UNL     1      22.460  34.179  12.912  1.00  0.00     0.085 A 
ATOM     13  Cl  UNL     1      20.658  36.867  15.423  1.00  0.00    -0.084 Cl
ATOM     14  C   UNL     1      22.773  36.836  13.744  1.00  0.00     0.024 A 
ATOM     15  C   UNL     1      23.514  34.960  12.418  1.00  0.00     0.142 A 
ATOM     16  Cl  UNL     1      22.361  32.505  12.362  1.00  0.00    -0.081 Cl
ATOM     17  C   UNL     1      23.664  36.283  12.829  1.00  0.00     0.042 A 
ATOM     18  F   UNL     1      24.401  34.435  11.536  1.00  0.00    -0.205 F 
ENDBRANCH   8  10
ENDBRANCH   7   8
ENDBRANCH   1   7
BRANCH   6  19
ATOM     19  N   UNL     1      16.527  35.044  15.271  1.00  0.00    -0.381 N 
ATOM     20  H   UNL     1      15.953  34.600  16.022  1.00  0.00     0.158 HD
ATOM     21  H   UNL     1      16.967  35.969  15.465  1.00  0.00     0.158 HD
ENDBRANCH   6  19
BRANCH   3  22
ATOM     22  C   UNL     1      17.133  32.555  10.164  1.00  0.00     0.021 A 
ATOM     23  C   UNL     1      16.131  31.993   9.389  1.00  0.00     0.117 A 
ATOM     24  C   UNL     1      18.288  32.391   9.412  1.00  0.00     0.143 A 
ATOM     25  N   UNL     1      16.686  31.523   8.257  1.00  0.00    -0.269 N 
ATOM     26  N   UNL     1      17.987  31.771   8.256  1.00  0.00    -0.181 NA
BRANCH  25  27
ATOM     27  C   UNL     1      15.960  30.918   7.136  1.00  0.00     0.110 C 
ATOM     28  C   UNL     1      14.440  30.879   7.418  1.00  0.00     0.042 C 
ATOM     29  C   UNL     1      16.535  29.518   6.836  1.00  0.00     0.042 C 
ATOM     30  C   UNL     1      14.003  29.505   7.942  1.00  0.00     0.083 C 
ATOM     31  C   UNL     1      15.489  28.635   6.145  1.00  0.00     0.083 C 
ATOM     32  N   UNL     1      14.285  28.423   6.977  1.00  0.00    -0.317 NA
ATOM     33  H   UNL     1      14.405  27.534   7.516  1.00  0.00     0.122 HD
ENDBRANCH  25  27
ENDBRANCH   3  22
TORSDOF 6
ENDMDL
MODEL 3
REMARK VINA RESULT:    -9.766      1.359      2.190
REMARK INTER + INTRA:         -13.087
REMARK INTER:                 -13.171
REMARK INTRA:                   0.084
REMARK UNBOUND:                -0.182
REMARK SMILES C[C@@H](Oc1cc(-c2cnn(C3CCNCC3)c2)cnc1N)c1c(Cl)ccc(F)c1Cl
REMARK SMILES IDX 4 1 5 2 6 3 18 4 19 5 20 6 3 7 2 8 1 9 22 10 23 11 29 12
REMARK SMILES IDX 24 13 25 14 27 15 30 16 26 17 28 18 21 19 7 22 17 23 8 24
REMARK SMILES IDX 10 25 9 26 11 27 12 28 16 29 13 30 15 31 14 32
REMARK H PARENT 21 20 21 21 14 33
REMARK Flexibility Score: inf
ROOT
ATOM      1  C   UNL     1      18.663  33.288  13.996  1.00  0.00     0.162 A 
ATOM      2  C   UNL     1      18.021  33.262  12.746  1.00  0.00     0.061 A 
ATOM      3  C   UNL     1      18.605  32.600  11.652  1.00  0.00     0.007 A 
ATOM      4  C   UNL     1      19.850  31.980  11.842  1.00  0.00     0.122 A 
ATOM      5  N   UNL     1      20.460  32.022  13.055  1.00  0.00    -0.235 NA
ATOM      6  C   UNL     1      19.908  32.653  14.124  1.00  0.00     0.166 A 
ENDROOT
BRANCH   1   7
ATOM      7  O   UNL     1      18.100  33.923  15.118  1.00  0.00    -0.482 OA
BRANCH   7   8
ATOM      8  C   UNL     1      17.726  35.301  15.190  1.00  0.00     0.203 C 
ATOM      9  C   UNL     1      18.981  36.166  15.298  1.00  0.00     0.058 C 
BRANCH   8  10
ATOM     10  C   UNL     1      16.791  35.567  16.367  1.00  0.00     0.032 A 
ATOM     11  C   UNL     1      15.427  35.164  16.330  1.00  0.00     0.049 A 
ATOM     12  C   UNL     1      17.275  36.205  17.540  1.00  0.00     0.085 A 
ATOM     13  Cl  UNL     1      14.718  34.308  14.962  1.00  0.00    -0.084 Cl
ATOM     14  C   UNL     1      14.585  35.435  17.413  1.00  0.00     0.024 A 
ATOM     15  C   UNL     1      16.409  36.467  18.610  1.00  0.00     0.142 A 
ATOM     16  Cl  UNL     1      18.962  36.692  17.720  1.00  0.00    -0.081 Cl
ATOM     17  C   UNL     1      15.070  36.088  18.542  1.00  0.00     0.042 A 
ATOM     18  F   UNL     1      16.867  37.091  19.724  1.00  0.00    -0.205 F 
ENDBRANCH   8  10
ENDBRANCH   7   8
ENDBRANCH   1   7
BRANCH   6  19
ATOM     19  N   UNL     1      20.604  32.647  15.374  1.00  0.00    -0.381 N 
ATOM     20  H   UNL     1      20.187  32.220  16.231  1.00  0.00     0.158 HD
ATOM     21  H   UNL     1      21.552  33.076  15.444  1.00  0.00     0.158 HD
ENDBRANCH   6  19
BRANCH   3  22
ATOM     22  C   UNL     1      17.920  32.557  10.332  1.00  0.00     0.021 A 
ATOM     23  C   UNL     1      18.188  31.713   9.265  1.00  0.00     0.117 A 
ATOM     24  C   UNL     1      16.866  33.347   9.895  1.00  0.00     0.143 A 
ATOM     25  N   UNL     1      17.337  32.013   8.266  1.00  0.00    -0.269 N 
ATOM     26  N   UNL     1      16.526  32.990   8.643  1.00  0.00    -0.181 NA
BRANCH  25  27
ATOM     27  C   UNL     1      17.239  31.305   6.985  1.00  0.00     0.110 C 
ATOM     28  C   UNL     1      16.047  30.320   6.988  1.00  0.00     0.042 C 
ATOM     29  C   UNL     1      18.578  30.604   6.674  1.00  0.00     0.042 C 
ATOM     30  C   UNL     1      16.504  28.890   7.305  1.00  0.00     0.083 C 
ATOM     31  C   UNL     1      18.361  29.411   5.734  1.00  0.00     0.083 C 
ATOM     32  N   UNL     1      17.475  28.381   6.316  1.00  0.00    -0.317 NA
ATOM     33  H   UNL     1      18.068  27.660   6.790  1.00  0.00     0.122 HD
ENDBRANCH  25  27
ENDBRANCH   3  22
TORSDOF 6
ENDMDL
MODEL 4
REMARK VINA RESULT:    -9.690      4.943      9.136
REMARK INTER + INTRA:         -12.987
REMARK INTER:                 -12.205
REMARK INTRA:                  -0.782
REMARK UNBOUND:                -0.182
REMARK SMILES C[C@@H](Oc1cc(-c2cnn(C3CCNCC3)c2)cnc1N)c1c(Cl)ccc(F)c1Cl
REMARK SMILES IDX 4 1 5 2 6 3 18 4 19 5 20 6 3 7 2 8 1 9 22 10 23 11 29 12
REMARK SMILES IDX 24 13 25 14 27 15 30 16 26 17 28 18 21 19 7 22 17 23 8 24
REMARK SMILES IDX 10 25 9 26 11 27 12 28 16 29 13 30 15 31 14 32
REMARK H PARENT 21 20 21 21 14 33
REMARK Flexibility Score: inf
ROOT
ATOM      1  C   UNL     1      16.855  32.535  10.957  1.00  0.00     0.162 A 
ATOM      2  C   UNL     1      18.256  32.614  11.045  1.00  0.00     0.061 A 
ATOM      3  C   UNL     1      18.877  33.107  12.206  1.00  0.00     0.007 A 
ATOM      4  C   UNL     1      18.058  33.528  13.265  1.00  0.00     0.122 A 
ATOM      5  N   UNL     1      16.706  33.452  13.161  1.00  0.00    -0.235 NA
ATOM      6  C   UNL     1      16.089  32.973  12.048  1.00  0.00     0.166 A 
ENDROOT
BRANCH   1   7
ATOM      7  O   UNL     1      16.200  32.028   9.821  1.00  0.00    -0.482 OA
BRANCH   7   8
ATOM      8  C   UNL     1      16.587  32.269   8.465  1.00  0.00     0.203 C 
ATOM      9  C   UNL     1      15.540  33.147   7.783  1.00  0.00     0.058 C 
BRANCH   8  10
ATOM     10  C   UNL     1      16.773  30.963   7.696  1.00  0.00     0.032 A 
ATOM     11  C   UNL     1      15.766  29.958   7.696  1.00  0.00     0.049 A 
ATOM     12  C   UNL     1      17.954  30.736   6.941  1.00  0.00     0.085 A 
ATOM     13  Cl  UNL     1      14.229  30.143   8.538  1.00  0.00    -0.084 Cl
ATOM     14  C   UNL     1      15.967  28.763   6.998  1.00  0.00     0.024 A 
ATOM     15  C   UNL     1      18.131  29.528   6.254  1.00  0.00     0.142 A 
ATOM     16  Cl  UNL     1      19.241  31.938   6.820  1.00  0.00    -0.081 Cl
ATOM     17  C   UNL     1      17.144  28.546   6.288  1.00  0.00     0.042 A 
ATOM     18  F   UNL     1      19.267  29.302   5.545  1.00  0.00    -0.205 F 
ENDBRANCH   8  10
ENDBRANCH   7   8
ENDBRANCH   1   7
BRANCH   6  19
ATOM     19  N   UNL     1      14.661  32.913  12.014  1.00  0.00    -0.381 N 
ATOM     20  H   UNL     1      14.136  32.856  11.113  1.00  0.00     0.158 HD
ATOM     21  H   UNL     1      14.117  32.925  12.904  1.00  0.00     0.158 HD
ENDBRANCH   6  19
BRANCH   3  22
ATOM     22  C   UNL     1      20.359  33.177  12.308  1.00  0.00     0.021 A 
ATOM     23  C   UNL     1      21.142  34.298  12.536  1.00  0.00     0.117 A 
ATOM     24  C   UNL     1      21.269  32.133  12.204  1.00  0.00     0.143 A 
ATOM     25  N   UNL     1      22.432  33.916  12.550  1.00  0.00    -0.269 N 
ATOM     26  N   UNL     1      22.518  32.608  12.364  1.00  0.00    -0.181 NA
BRANCH  25  27
ATOM     27  C   UNL     1      23.578  34.787  12.833  1.00  0.00     0.110 C 
ATOM     28  C   UNL     1      23.241  35.798  13.953  1.00  0.00     0.042 C 
ATOM     29  C   UNL     1      24.038  35.482  11.535  1.00  0.00     0.042 C 
ATOM     30  C   UNL     1      22.839  37.161  13.373  1.00  0.00     0.083 C 
ATOM     31  C   UNL     1      24.771  36.793  11.848  1.00  0.00     0.083 C 
ATOM     32  N   UNL     1      23.917  37.764  12.563  1.00  0.00    -0.317 NA
ATOM     33  H   UNL     1      23.473  38.400  11.860  1.00  0.00     0.122 HD
ENDBRANCH  25  27
ENDBRANCH   3  22
TORSDOF 6
ENDMDL
MODEL 5
REMARK VINA RESULT:    -9.670      3.636      5.090
REMARK INTER + INTRA:         -12.961
REMARK INTER:                 -12.141
REMARK INTRA:                  -0.820
REMARK UNBOUND:                -0.182
REMARK SMILES C[C@@H](Oc1cc(-c2cnn(C3CCNCC3)c2)cnc1N)c1c(Cl)ccc(F)c1Cl
REMARK SMILES IDX 4 1 5 2 6 3 18 4 19 5 20 6 3 7 2 8 1 9 22 10 23 11 29 12
REMARK SMILES IDX 24 13 25 14 27 15 30 16 26 17 28 18 21 19 7 22 17 23 8 24
REMARK SMILES IDX 10 25 9 26 11 27 12 28 16 29 13 30 15 31 14 32
REMARK H PARENT 21 20 21 21 14 33
REMARK Flexibility Score: inf
ROOT
ATOM      1  C   UNL     1      18.216  34.215  13.208  1.00  0.00     0.162 A 
ATOM      2  C   UNL     1      18.100  33.999  11.824  1.00  0.00     0.061 A 
ATOM      3  C   UNL     1      16.870  33.621  11.257  1.00  0.00     0.007 A 
ATOM      4  C   UNL     1      15.771  33.454  12.113  1.00  0.00     0.122 A 
ATOM      5  N   UNL     1      15.903  33.659  13.449  1.00  0.00    -0.235 NA
ATOM      6  C   UNL     1      17.082  34.030  14.014  1.00  0.00     0.166 A 
ENDROOT
BRANCH   1   7
ATOM      7  O   UNL     1      19.425  34.613  13.808  1.00  0.00    -0.482 OA
BRANCH   7   8
ATOM      8  C   UNL     1      20.607  33.813  13.901  1.00  0.00     0.203 C 
ATOM      9  C   UNL     1      20.665  33.144  15.272  1.00  0.00     0.058 C 
BRANCH   8  10
ATOM     10  C   UNL     1      21.865  34.644  13.658  1.00  0.00     0.032 A 
ATOM     11  C   UNL     1      21.998  35.954  14.196  1.00  0.00     0.049 A 
ATOM     12  C   UNL     1      22.943  34.110  12.903  1.00  0.00     0.085 A 
ATOM     13  Cl  UNL     1      20.762  36.706  15.202  1.00  0.00    -0.084 Cl
ATOM     14  C   UNL     1      23.153  36.702  13.945  1.00  0.00     0.024 A 
ATOM     15  C   UNL     1      24.087  34.883  12.663  1.00  0.00     0.142 A 
ATOM     16  Cl  UNL     1      22.912  32.475  12.240  1.00  0.00    -0.081 Cl
ATOM     17  C   UNL     1      24.187  36.174  13.178  1.00  0.00     0.042 A 
ATOM     18  F   UNL     1      25.112  34.381  11.929  1.00  0.00    -0.205 F 
ENDBRANCH   8  10
ENDBRANCH   7   8
ENDBRANCH   1   7
BRANCH   6  19
ATOM     19  N   UNL     1      17.144  34.239  15.427  1.00  0.00    -0.381 N 
ATOM     20  H   UNL     1      17.329  35.182  15.834  1.00  0.00     0.158 HD
ATOM     21  H   UNL     1      17.003  33.436  16.079  1.00  0.00     0.158 HD
ENDBRANCH   6  19
BRANCH   3  22
ATOM     22  C   UNL     1      16.739  33.407   9.790  1.00  0.00     0.021 A 
ATOM     23  C   UNL     1      17.177  32.321   9.048  1.00  0.00     0.117 A 
ATOM     24  C   UNL     1      16.145  34.247   8.859  1.00  0.00     0.143 A 
ATOM     25  N   UNL     1      16.859  32.535   7.759  1.00  0.00    -0.269 N 
ATOM     26  N   UNL     1      16.223  33.690   7.637  1.00  0.00    -0.181 NA
BRANCH  25  27
ATOM     27  C   UNL     1      17.081  31.594   6.656  1.00  0.00     0.110 C 
ATOM     28  C   UNL     1      15.949  30.542   6.590  1.00  0.00     0.042 C 
ATOM     29  C   UNL     1      18.474  30.945   6.797  1.00  0.00     0.042 C 
ATOM     30  C   UNL     1      16.358  29.235   7.280  1.00  0.00     0.083 C 
ATOM     31  C   UNL     1      18.516  29.584   6.090  1.00  0.00     0.083 C 
ATOM     32  N   UNL     1      17.547  28.621   6.654  1.00  0.00    -0.317 NA
ATOM     33  H   UNL     1      18.033  28.047   7.383  1.00  0.00     0.122 HD
ENDBRANCH  25  27
ENDBRANCH   3  22
TORSDOF 6
ENDMDL
MODEL 6
REMARK VINA RESULT:    -9.633      3.275      4.608
REMARK INTER + INTRA:         -12.911
REMARK INTER:                 -11.864
REMARK INTRA:                  -1.047
REMARK UNBOUND:                -0.182
REMARK SMILES C[C@@H](Oc1cc(-c2cnn(C3CCNCC3)c2)cnc1N)c1c(Cl)ccc(F)c1Cl
REMARK SMILES IDX 4 1 5 2 6 3 18 4 19 5 20 6 3 7 2 8 1 9 22 10 23 11 29 12
REMARK SMILES IDX 24 13 25 14 27 15 30 16 26 17 28 18 21 19 7 22 17 23 8 24
REMARK SMILES IDX 10 25 9 26 11 27 12 28 16 29 13 30 15 31 14 32
REMARK H PARENT 21 20 21 21 14 33
REMARK Flexibility Score: inf
ROOT
ATOM      1  C   UNL     1      17.760  34.278  14.782  1.00  0.00     0.162 A 
ATOM      2  C   UNL     1      17.726  34.221  13.378  1.00  0.00     0.061 A 
ATOM      3  C   UNL     1      16.501  34.153  12.691  1.00  0.00     0.007 A 
ATOM      4  C   UNL     1      15.320  34.132  13.448  1.00  0.00     0.122 A 
ATOM      5  N   UNL     1      15.371  34.180  14.805  1.00  0.00    -0.235 NA
ATOM      6  C   UNL     1      16.546  34.251  15.485  1.00  0.00     0.166 A 
ENDROOT
BRANCH   1   7
ATOM      7  O   UNL     1      18.965  34.367  15.502  1.00  0.00    -0.482 OA
BRANCH   7   8
ATOM      8  C   UNL     1      20.191  33.719  15.150  1.00  0.00     0.203 C 
ATOM      9  C   UNL     1      20.824  33.110  16.400  1.00  0.00     0.058 C 
BRANCH   8  10
ATOM     10  C   UNL     1      21.161  34.686  14.476  1.00  0.00     0.032 A 
ATOM     11  C   UNL     1      21.360  36.001  14.979  1.00  0.00     0.049 A 
ATOM     12  C   UNL     1      21.907  34.278  13.338  1.00  0.00     0.085 A 
ATOM     13  Cl  UNL     1      20.546  36.608  16.420  1.00  0.00    -0.084 Cl
ATOM     14  C   UNL     1      22.241  36.875  14.334  1.00  0.00     0.024 A 
ATOM     15  C   UNL     1      22.781  35.175  12.708  1.00  0.00     0.142 A 
ATOM     16  Cl  UNL     1      21.786  32.651  12.665  1.00  0.00    -0.081 Cl
ATOM     17  C   UNL     1      22.941  36.467  13.202  1.00  0.00     0.042 A 
ATOM     18  F   UNL     1      23.482  34.792  11.611  1.00  0.00    -0.205 F 
ENDBRANCH   8  10
ENDBRANCH   7   8
ENDBRANCH   1   7
BRANCH   6  19
ATOM     19  N   UNL     1      16.523  34.309  16.914  1.00  0.00    -0.381 N 
ATOM     20  H   UNL     1      16.014  33.597  17.483  1.00  0.00     0.158 HD
ATOM     21  H   UNL     1      17.022  35.078  17.412  1.00  0.00     0.158 HD
ENDBRANCH   6  19
BRANCH   3  22
ATOM     22  C   UNL     1      16.460  34.108  11.205  1.00  0.00     0.021 A 
ATOM     23  C   UNL     1      16.749  33.032  10.380  1.00  0.00     0.117 A 
ATOM     24  C   UNL     1      16.118  35.133  10.333  1.00  0.00     0.143 A 
ATOM     25  N   UNL     1      16.590  33.425   9.103  1.00  0.00    -0.269 N 
ATOM     26  N   UNL     1      16.196  34.688   9.065  1.00  0.00    -0.181 NA
BRANCH  25  27
ATOM     27  C   UNL     1      16.726  32.567   7.922  1.00  0.00     0.110 C 
ATOM     28  C   UNL     1      15.345  32.069   7.437  1.00  0.00     0.042 C 
ATOM     29  C   UNL     1      17.691  31.403   8.231  1.00  0.00     0.042 C 
ATOM     30  C   UNL     1      15.045  30.656   7.954  1.00  0.00     0.083 C 
ATOM     31  C   UNL     1      17.408  30.203   7.319  1.00  0.00     0.083 C 
ATOM     32  N   UNL     1      16.041  29.669   7.490  1.00  0.00    -0.317 NA
ATOM     33  H   UNL     1      16.072  28.891   8.190  1.00  0.00     0.122 HD
ENDBRANCH  25  27
ENDBRANCH   3  22
TORSDOF 6
ENDMDL
MODEL 7
REMARK VINA RESULT:    -9.535      3.426      5.075
REMARK INTER + INTRA:         -12.782
REMARK INTER:                 -11.934
REMARK INTRA:                  -0.848
REMARK UNBOUND:                -0.182
REMARK SMILES C[C@@H](Oc1cc(-c2cnn(C3CCNCC3)c2)cnc1N)c1c(Cl)ccc(F)c1Cl
REMARK SMILES IDX 4 1 5 2 6 3 18 4 19 5 20 6 3 7 2 8 1 9 22 10 23 11 29 12
REMARK SMILES IDX 24 13 25 14 27 15 30 16 26 17 28 18 21 19 7 22 17 23 8 24
REMARK SMILES IDX 10 25 9 26 11 27 12 28 16 29 13 30 15 31 14 32
REMARK H PARENT 21 20 21 21 14 33
REMARK Flexibility Score: inf
ROOT
ATOM      1  C   UNL     1      18.010  34.190  13.537  1.00  0.00     0.162 A 
ATOM      2  C   UNL     1      18.142  33.561  12.286  1.00  0.00     0.061 A 
ATOM      3  C   UNL     1      17.006  33.205  11.538  1.00  0.00     0.007 A 
ATOM      4  C   UNL     1      15.743  33.484  12.082  1.00  0.00     0.122 A 
ATOM      5  N   UNL     1      15.633  34.085  13.295  1.00  0.00    -0.235 NA
ATOM      6  C   UNL     1      16.720  34.440  14.030  1.00  0.00     0.166 A 
ENDROOT
BRANCH   1   7
ATOM      7  O   UNL     1      19.123  34.578  14.305  1.00  0.00    -0.482 OA
BRANCH   7   8
ATOM      8  C   UNL     1      20.310  33.803  14.495  1.00  0.00     0.203 C 
ATOM      9  C   UNL     1      20.569  33.624  15.989  1.00  0.00     0.058 C 
BRANCH   8  10
ATOM     10  C   UNL     1      21.515  34.451  13.816  1.00  0.00     0.032 A 
ATOM     11  C   UNL     1      22.257  33.762  12.818  1.00  0.00     0.049 A 
ATOM     12  C   UNL     1      21.905  35.773  14.156  1.00  0.00     0.085 A 
ATOM     13  Cl  UNL     1      21.838  32.143  12.259  1.00  0.00    -0.084 Cl
ATOM     14  C   UNL     1      23.368  34.369  12.223  1.00  0.00     0.024 A 
ATOM     15  C   UNL     1      23.025  36.357  13.548  1.00  0.00     0.142 A 
ATOM     16  Cl  UNL     1      21.021  36.744  15.336  1.00  0.00    -0.081 Cl
ATOM     17  C   UNL     1      23.754  35.655  12.591  1.00  0.00     0.042 A 
ATOM     18  F   UNL     1      23.409  37.615  13.883  1.00  0.00    -0.205 F 
ENDBRANCH   8  10
ENDBRANCH   7   8
ENDBRANCH   1   7
BRANCH   6  19
ATOM     19  N   UNL     1      16.528  35.079  15.295  1.00  0.00    -0.381 N 
ATOM     20  H   UNL     1      16.147  34.561  16.118  1.00  0.00     0.158 HD
ATOM     21  H   UNL     1      16.772  36.086  15.412  1.00  0.00     0.158 HD
ENDBRANCH   6  19
BRANCH   3  22
ATOM     22  C   UNL     1      17.142  32.555  10.207  1.00  0.00     0.021 A 
ATOM     23  C   UNL     1      16.140  31.994   9.430  1.00  0.00     0.117 A 
ATOM     24  C   UNL     1      18.299  32.380   9.461  1.00  0.00     0.143 A 
ATOM     25  N   UNL     1      16.698  31.514   8.304  1.00  0.00    -0.269 N 
ATOM     26  N   UNL     1      18.000  31.755   8.307  1.00  0.00    -0.181 NA
BRANCH  25  27
ATOM     27  C   UNL     1      15.973  30.907   7.183  1.00  0.00     0.110 C 
ATOM     28  C   UNL     1      14.454  30.862   7.466  1.00  0.00     0.042 C 
ATOM     29  C   UNL     1      16.554  29.510   6.882  1.00  0.00     0.042 C 
ATOM     30  C   UNL     1      14.023  29.486   7.990  1.00  0.00     0.083 C 
ATOM     31  C   UNL     1      15.510  28.623   6.191  1.00  0.00     0.083 C 
ATOM     32  N   UNL     1      14.309  28.405   7.023  1.00  0.00    -0.317 NA
ATOM     33  H   UNL     1      14.433  27.517   7.562  1.00  0.00     0.122 HD
ENDBRANCH  25  27
ENDBRANCH   3  22
TORSDOF 6
ENDMDL
MODEL 8
REMARK VINA RESULT:    -9.501      3.152      4.835
REMARK INTER + INTRA:         -12.737
REMARK INTER:                 -11.700
REMARK INTRA:                  -1.038
REMARK UNBOUND:                -0.182
REMARK SMILES C[C@@H](Oc1cc(-c2cnn(C3CCNCC3)c2)cnc1N)c1c(Cl)ccc(F)c1Cl
REMARK SMILES IDX 4 1 5 2 6 3 18 4 19 5 20 6 3 7 2 8 1 9 22 10 23 11 29 12
REMARK SMILES IDX 24 13 25 14 27 15 30 16 26 17 28 18 21 19 7 22 17 23 8 24
REMARK SMILES IDX 10 25 9 26 11 27 12 28 16 29 13 30 15 31 14 32
REMARK H PARENT 21 20 21 21 14 33
REMARK Flexibility Score: inf
ROOT
ATOM      1  C   UNL     1      17.772  34.254  14.845  1.00  0.00     0.162 A 
ATOM      2  C   UNL     1      17.741  34.223  13.440  1.00  0.00     0.061 A 
ATOM      3  C   UNL     1      16.518  34.190  12.748  1.00  0.00     0.007 A 
ATOM      4  C   UNL     1      15.333  34.176  13.501  1.00  0.00     0.122 A 
ATOM      5  N   UNL     1      15.381  34.199  14.859  1.00  0.00    -0.235 NA
ATOM      6  C   UNL     1      16.554  34.236  15.543  1.00  0.00     0.166 A 
ENDROOT
BRANCH   1   7
ATOM      7  O   UNL     1      18.975  34.308  15.571  1.00  0.00    -0.482 OA
BRANCH   7   8
ATOM      8  C   UNL     1      20.144  33.530  15.295  1.00  0.00     0.203 C 
ATOM      9  C   UNL     1      20.846  33.182  16.607  1.00  0.00     0.058 C 
BRANCH   8  10
ATOM     10  C   UNL     1      21.097  34.266  14.357  1.00  0.00     0.032 A 
ATOM     11  C   UNL     1      21.433  33.733  13.081  1.00  0.00     0.049 A 
ATOM     12  C   UNL     1      21.652  35.518  14.733  1.00  0.00     0.085 A 
ATOM     13  Cl  UNL     1      20.763  32.222  12.468  1.00  0.00    -0.084 Cl
ATOM     14  C   UNL     1      22.323  34.417  12.246  1.00  0.00     0.024 A 
ATOM     15  C   UNL     1      22.544  36.180  13.879  1.00  0.00     0.142 A 
ATOM     16  Cl  UNL     1      21.257  36.301  16.265  1.00  0.00    -0.081 Cl
ATOM     17  C   UNL     1      22.880  35.628  12.645  1.00  0.00     0.042 A 
ATOM     18  F   UNL     1      23.088  37.368  14.245  1.00  0.00    -0.205 F 
ENDBRANCH   8  10
ENDBRANCH   7   8
ENDBRANCH   1   7
BRANCH   6  19
ATOM     19  N   UNL     1      16.527  34.268  16.973  1.00  0.00    -0.381 N 
ATOM     20  H   UNL     1      16.763  33.427  17.545  1.00  0.00     0.158 HD
ATOM     21  H   UNL     1      16.267  35.148  17.469  1.00  0.00     0.158 HD
ENDBRANCH   6  19
BRANCH   3  22
ATOM     22  C   UNL     1      16.481  34.174  11.261  1.00  0.00     0.021 A 
ATOM     23  C   UNL     1      16.851  33.140  10.415  1.00  0.00     0.117 A 
ATOM     24  C   UNL     1      16.062  35.187  10.410  1.00  0.00     0.143 A 
ATOM     25  N   UNL     1      16.663  33.546   9.146  1.00  0.00    -0.269 N 
ATOM     26  N   UNL     1      16.174  34.777   9.134  1.00  0.00    -0.181 NA
BRANCH  25  27
ATOM     27  C   UNL     1      16.865  32.726   7.947  1.00  0.00     0.110 C 
ATOM     28  C   UNL     1      15.515  32.215   7.393  1.00  0.00     0.042 C 
ATOM     29  C   UNL     1      17.842  31.573   8.262  1.00  0.00     0.042 C 
ATOM     30  C   UNL     1      15.225  30.782   7.857  1.00  0.00     0.083 C 
ATOM     31  C   UNL     1      17.621  30.395   7.305  1.00  0.00     0.083 C 
ATOM     32  N   UNL     1      16.260  29.829   7.406  1.00  0.00    -0.317 NA
ATOM     33  H   UNL     1      16.279  29.031   8.084  1.00  0.00     0.122 HD
ENDBRANCH  25  27
ENDBRANCH   3  22
TORSDOF 6
ENDMDL
MODEL 9
REMARK VINA RESULT:    -9.416      3.565      5.285
REMARK INTER + INTRA:         -12.625
REMARK INTER:                 -12.017
REMARK INTRA:                  -0.608
REMARK UNBOUND:                -0.182
REMARK SMILES C[C@@H](Oc1cc(-c2cnn(C3CCNCC3)c2)cnc1N)c1c(Cl)ccc(F)c1Cl
REMARK SMILES IDX 4 1 5 2 6 3 18 4 19 5 20 6 3 7 2 8 1 9 22 10 23 11 29 12
REMARK SMILES IDX 24 13 25 14 27 15 30 16 26 17 28 18 21 19 7 22 17 23 8 24
REMARK SMILES IDX 10 25 9 26 11 27 12 28 16 29 13 30 15 31 14 32
REMARK H PARENT 21 20 21 21 14 33
REMARK Flexibility Score: inf
ROOT
ATOM      1  C   UNL     1      18.758  33.977  12.806  1.00  0.00     0.162 A 
ATOM      2  C   UNL     1      18.493  33.695  11.454  1.00  0.00     0.061 A 
ATOM      3  C   UNL     1      17.194  33.366  11.031  1.00  0.00     0.007 A 
ATOM      4  C   UNL     1      16.177  33.315  11.996  1.00  0.00     0.122 A 
ATOM      5  N   UNL     1      16.452  33.583  13.299  1.00  0.00    -0.235 NA
ATOM      6  C   UNL     1      17.700  33.908  13.726  1.00  0.00     0.166 A 
ENDROOT
BRANCH   1   7
ATOM      7  O   UNL     1      20.040  34.330  13.264  1.00  0.00    -0.482 OA
BRANCH   7   8
ATOM      8  C   UNL     1      21.177  33.462  13.294  1.00  0.00     0.203 C 
ATOM      9  C   UNL     1      20.998  32.424  14.400  1.00  0.00     0.058 C 
BRANCH   8  10
ATOM     10  C   UNL     1      22.472  34.244  13.499  1.00  0.00     0.032 A 
ATOM     11  C   UNL     1      23.700  33.797  12.936  1.00  0.00     0.049 A 
ATOM     12  C   UNL     1      22.471  35.454  14.241  1.00  0.00     0.085 A 
ATOM     13  Cl  UNL     1      23.825  32.348  11.940  1.00  0.00    -0.084 Cl
ATOM     14  C   UNL     1      24.877  34.521  13.152  1.00  0.00     0.024 A 
ATOM     15  C   UNL     1      23.665  36.158  14.446  1.00  0.00     0.142 A 
ATOM     16  Cl  UNL     1      20.996  36.135  14.933  1.00  0.00    -0.081 Cl
ATOM     17  C   UNL     1      24.861  35.689  13.908  1.00  0.00     0.042 A 
ATOM     18  F   UNL     1      23.668  37.306  15.170  1.00  0.00    -0.205 F 
ENDBRANCH   8  10
ENDBRANCH   7   8
ENDBRANCH   1   7
BRANCH   6  19
ATOM     19  N   UNL     1      17.913  34.187  15.112  1.00  0.00    -0.381 N 
ATOM     20  H   UNL     1      18.173  33.436  15.789  1.00  0.00     0.158 HD
ATOM     21  H   UNL     1      17.810  35.162  15.469  1.00  0.00     0.158 HD
ENDBRANCH   6  19
BRANCH   3  22
ATOM     22  C   UNL     1      16.907  33.083   9.599  1.00  0.00     0.021 A 
ATOM     23  C   UNL     1      17.294  31.978   8.858  1.00  0.00     0.117 A 
ATOM     24  C   UNL     1      16.184  33.863   8.707  1.00  0.00     0.143 A 
ATOM     25  N   UNL     1      16.827  32.124   7.605  1.00  0.00    -0.269 N 
ATOM     26  N   UNL     1      16.143  33.254   7.507  1.00  0.00    -0.181 NA
BRANCH  25  27
ATOM     27  C   UNL     1      16.955  31.140   6.524  1.00  0.00     0.110 C 
ATOM     28  C   UNL     1      15.810  30.103   6.581  1.00  0.00     0.042 C 
ATOM     29  C   UNL     1      18.348  30.479   6.584  1.00  0.00     0.042 C 
ATOM     30  C   UNL     1      16.256  28.815   7.287  1.00  0.00     0.083 C 
ATOM     31  C   UNL     1      18.322  29.093   5.927  1.00  0.00     0.083 C 
ATOM     32  N   UNL     1      17.388  28.164   6.597  1.00  0.00    -0.317 NA
ATOM     33  H   UNL     1      17.921  27.610   7.308  1.00  0.00     0.122 HD
ENDBRANCH  25  27
ENDBRANCH   3  22
TORSDOF 6
ENDMDL
MODEL 10
REMARK VINA RESULT:    -9.389      4.772      8.967
REMARK INTER + INTRA:         -12.589
REMARK INTER:                 -11.877
REMARK INTRA:                  -0.712
REMARK UNBOUND:                -0.182
REMARK SMILES C[C@@H](Oc1cc(-c2cnn(C3CCNCC3)c2)cnc1N)c1c(Cl)ccc(F)c1Cl
REMARK SMILES IDX 4 1 5 2 6 3 18 4 19 5 20 6 3 7 2 8 1 9 22 10 23 11 29 12
REMARK SMILES IDX 24 13 25 14 27 15 30 16 26 17 28 18 21 19 7 22 17 23 8 24
REMARK SMILES IDX 10 25 9 26 11 27 12 28 16 29 13 30 15 31 14 32
REMARK H PARENT 21 20 21 21 14 33
REMARK Flexibility Score: inf
ROOT
ATOM      1  C   UNL     1      16.854  32.638  10.962  1.00  0.00     0.162 A 
ATOM      2  C   UNL     1      18.256  32.710  11.048  1.00  0.00     0.061 A 
ATOM      3  C   UNL     1      18.881  33.158  12.224  1.00  0.00     0.007 A 
ATOM      4  C   UNL     1      18.067  33.540  13.301  1.00  0.00     0.122 A 
ATOM      5  N   UNL     1      16.714  33.471  13.199  1.00  0.00    -0.235 NA
ATOM      6  C   UNL     1      16.093  33.036  12.071  1.00  0.00     0.166 A 
ENDROOT
BRANCH   1   7
ATOM      7  O   UNL     1      16.194  32.176   9.809  1.00  0.00    -0.482 OA
BRANCH   7   8
ATOM      8  C   UNL     1      16.605  32.428   8.462  1.00  0.00     0.203 C 
ATOM      9  C   UNL     1      15.573  33.319   7.772  1.00  0.00     0.058 C 
BRANCH   8  10
ATOM     10  C   UNL     1      16.796  31.129   7.683  1.00  0.00     0.032 A 
ATOM     11  C   UNL     1      17.996  30.870   6.965  1.00  0.00     0.049 A 
ATOM     12  C   UNL     1      15.780  30.136   7.682  1.00  0.00     0.085 A 
ATOM     13  Cl  UNL     1      19.357  31.989   6.939  1.00  0.00    -0.084 Cl
ATOM     14  C   UNL     1      18.141  29.680   6.245  1.00  0.00     0.024 A 
ATOM     15  C   UNL     1      15.949  28.954   6.949  1.00  0.00     0.142 A 
ATOM     16  Cl  UNL     1      14.277  30.324   8.588  1.00  0.00    -0.081 Cl
ATOM     17  C   UNL     1      17.122  28.732   6.230  1.00  0.00     0.042 A 
ATOM     18  F   UNL     1      14.973  28.012   6.933  1.00  0.00    -0.205 F 
ENDBRANCH   8  10
ENDBRANCH   7   8
ENDBRANCH   1   7
BRANCH   6  19
ATOM     19  N   UNL     1      14.664  32.980  12.039  1.00  0.00    -0.381 N 
ATOM     20  H   UNL     1      14.154  32.079  11.906  1.00  0.00     0.158 HD
ATOM     21  H   UNL     1      14.106  33.855  12.151  1.00  0.00     0.158 HD
ENDBRANCH   6  19
BRANCH   3  22
ATOM     22  C   UNL     1      20.364  33.220  12.324  1.00  0.00     0.021 A 
ATOM     23  C   UNL     1      21.154  34.340  12.535  1.00  0.00     0.117 A 
ATOM     24  C   UNL     1      21.267  32.170  12.235  1.00  0.00     0.143 A 
ATOM     25  N   UNL     1      22.442  33.951  12.554  1.00  0.00    -0.269 N 
ATOM     26  N   UNL     1      22.519  32.639  12.387  1.00  0.00    -0.181 NA
BRANCH  25  27
ATOM     27  C   UNL     1      23.593  34.818  12.823  1.00  0.00     0.110 C 
ATOM     28  C   UNL     1      23.275  35.826  13.951  1.00  0.00     0.042 C 
ATOM     29  C   UNL     1      24.034  35.519  11.520  1.00  0.00     0.042 C 
ATOM     30  C   UNL     1      22.865  37.192  13.383  1.00  0.00     0.083 C 
ATOM     31  C   UNL     1      24.773  36.827  11.828  1.00  0.00     0.083 C 
ATOM     32  N   UNL     1      23.932  37.797  12.560  1.00  0.00    -0.317 NA
ATOM     33  H   UNL     1      23.478  38.436  11.866  1.00  0.00     0.122 HD
ENDBRANCH  25  27
ENDBRANCH   3  22
TORSDOF 6
ENDMDL
MODEL 11
REMARK VINA RESULT:    -9.351      3.044      3.952
REMARK INTER + INTRA:         -12.539
REMARK INTER:                 -11.821
REMARK INTRA:                  -0.717
REMARK UNBOUND:                -0.182
REMARK SMILES C[C@@H](Oc1cc(-c2cnn(C3CCNCC3)c2)cnc1N)c1c(Cl)ccc(F)c1Cl
REMARK SMILES IDX 4 1 5 2 6 3 18 4 19 5 20 6 3 7 2 8 1 9 22 10 23 11 29 12
REMARK SMILES IDX 24 13 25 14 27 15 30 16 26 17 28 18 21 19 7 22 17 23 8 24
REMARK SMILES IDX 10 25 9 26 11 27 12 28 16 29 13 30 15 31 14 32
REMARK H PARENT 21 20 21 21 14 33
REMARK Flexibility Score: inf
ROOT
ATOM      1  C   UNL     1      16.069  34.894  15.213  1.00  0.00     0.162 A 
ATOM      2  C   UNL     1      16.771  34.552  14.044  1.00  0.00     0.061 A 
ATOM      3  C   UNL     1      16.127  33.879  12.991  1.00  0.00     0.007 A 
ATOM      4  C   UNL     1      14.772  33.549  13.148  1.00  0.00     0.122 A 
ATOM      5  N   UNL     1      14.111  33.881  14.288  1.00  0.00    -0.235 NA
ATOM      6  C   UNL     1      14.716  34.535  15.313  1.00  0.00     0.166 A 
ENDROOT
BRANCH   1   7
ATOM      7  O   UNL     1      16.674  35.585  16.279  1.00  0.00    -0.482 OA
BRANCH   7   8
ATOM      8  C   UNL     1      17.829  35.147  17.001  1.00  0.00     0.203 C 
ATOM      9  C   UNL     1      17.547  33.788  17.638  1.00  0.00     0.058 C 
BRANCH   8  10
ATOM     10  C   UNL     1      18.241  36.162  18.065  1.00  0.00     0.032 A 
ATOM     11  C   UNL     1      17.278  36.766  18.919  1.00  0.00     0.049 A 
ATOM     12  C   UNL     1      19.608  36.505  18.239  1.00  0.00     0.085 A 
ATOM     13  Cl  UNL     1      15.559  36.379  18.851  1.00  0.00    -0.084 Cl
ATOM     14  C   UNL     1      17.677  37.706  19.875  1.00  0.00     0.024 A 
ATOM     15  C   UNL     1      19.981  37.453  19.202  1.00  0.00     0.142 A 
ATOM     16  Cl  UNL     1      20.894  35.772  17.277  1.00  0.00    -0.081 Cl
ATOM     17  C   UNL     1      19.018  38.052  20.010  1.00  0.00     0.042 A 
ATOM     18  F   UNL     1      21.285  37.794  19.358  1.00  0.00    -0.205 F 
ENDBRANCH   8  10
ENDBRANCH   7   8
ENDBRANCH   1   7
BRANCH   6  19
ATOM     19  N   UNL     1      13.954  34.861  16.479  1.00  0.00    -0.381 N 
ATOM     20  H   UNL     1      14.412  35.185  17.360  1.00  0.00     0.158 HD
ATOM     21  H   UNL     1      12.914  34.778  16.462  1.00  0.00     0.158 HD
ENDBRANCH   6  19
BRANCH   3  22
ATOM     22  C   UNL     1      16.862  33.529  11.746  1.00  0.00     0.021 A 
ATOM     23  C   UNL     1      16.333  33.285  10.488  1.00  0.00     0.117 A 
ATOM     24  C   UNL     1      18.233  33.381  11.581  1.00  0.00     0.143 A 
ATOM     25  N   UNL     1      17.348  33.002   9.651  1.00  0.00    -0.269 N 
ATOM     26  N   UNL     1      18.500  33.071  10.299  1.00  0.00    -0.181 NA
BRANCH  25  27
ATOM     27  C   UNL     1      17.224  32.756   8.211  1.00  0.00     0.110 C 
ATOM     28  C   UNL     1      15.738  32.693   7.786  1.00  0.00     0.042 C 
ATOM     29  C   UNL     1      17.995  31.474   7.833  1.00  0.00     0.042 C 
ATOM     30  C   UNL     1      15.245  31.243   7.687  1.00  0.00     0.083 C 
ATOM     31  C   UNL     1      17.425  30.852   6.552  1.00  0.00     0.083 C 
ATOM     32  N   UNL     1      16.007  30.461   6.692  1.00  0.00    -0.317 NA
ATOM     33  H   UNL     1      15.965  29.454   6.975  1.00  0.00     0.122 HD
ENDBRANCH  25  27
ENDBRANCH   3  22
TORSDOF 6
ENDMDL
MODEL 12
REMARK VINA RESULT:    -9.289      3.797      5.438
REMARK INTER + INTRA:         -12.458
REMARK INTER:                 -11.548
REMARK INTRA:                  -0.909
REMARK UNBOUND:                -0.182
REMARK SMILES C[C@@H](Oc1cc(-c2cnn(C3CCNCC3)c2)cnc1N)c1c(Cl)ccc(F)c1Cl
REMARK SMILES IDX 4 1 5 2 6 3 18 4 19 5 20 6 3 7 2 8 1 9 22 10 23 11 29 12
REMARK SMILES IDX 24 13 25 14 27 15 30 16 26 17 28 18 21 19 7 22 17 23 8 24
REMARK SMILES IDX 10 25 9 26 11 27 12 28 16 29 13 30 15 31 14 32
REMARK H PARENT 21 20 21 21 14 33
REMARK Flexibility Score: inf
ROOT
ATOM      1  C   UNL     1      19.730  35.152  14.852  1.00  0.00     0.162 A 
ATOM      2  C   UNL     1      19.230  34.634  13.644  1.00  0.00     0.061 A 
ATOM      3  C   UNL     1      17.984  33.985  13.602  1.00  0.00     0.007 A 
ATOM      4  C   UNL     1      17.263  33.860  14.800  1.00  0.00     0.122 A 
ATOM      5  N   UNL     1      17.765  34.359  15.960  1.00  0.00    -0.235 NA
ATOM      6  C   UNL     1      18.965  34.993  16.017  1.00  0.00     0.166 A 
ENDROOT
BRANCH   1   7
ATOM      7  O   UNL     1      20.963  35.825  14.929  1.00  0.00    -0.482 OA
BRANCH   7   8
ATOM      8  C   UNL     1      22.211  35.228  15.293  1.00  0.00     0.203 C 
ATOM      9  C   UNL     1      23.029  36.220  16.117  1.00  0.00     0.058 C 
BRANCH   8  10
ATOM     10  C   UNL     1      22.996  34.778  14.063  1.00  0.00     0.032 A 
ATOM     11  C   UNL     1      23.350  35.698  13.038  1.00  0.00     0.049 A 
ATOM     12  C   UNL     1      23.413  33.427  13.932  1.00  0.00     0.085 A 
ATOM     13  Cl  UNL     1      22.950  37.413  13.110  1.00  0.00    -0.084 Cl
ATOM     14  C   UNL     1      24.054  35.259  11.912  1.00  0.00     0.024 A 
ATOM     15  C   UNL     1      24.114  33.012  12.792  1.00  0.00     0.142 A 
ATOM     16  Cl  UNL     1      23.084  32.214  15.172  1.00  0.00    -0.081 Cl
ATOM     17  C   UNL     1      24.427  33.924  11.787  1.00  0.00     0.042 A 
ATOM     18  F   UNL     1      24.499  31.718  12.658  1.00  0.00    -0.205 F 
ENDBRANCH   8  10
ENDBRANCH   7   8
ENDBRANCH   1   7
BRANCH   6  19
ATOM     19  N   UNL     1      19.425  35.503  17.272  1.00  0.00    -0.381 N 
ATOM     20  H   UNL     1      18.860  36.183  17.828  1.00  0.00     0.158 HD
ATOM     21  H   UNL     1      20.346  35.195  17.653  1.00  0.00     0.158 HD
ENDBRANCH   6  19
BRANCH   3  22
ATOM     22  C   UNL     1      17.444  33.450  12.323  1.00  0.00     0.021 A 
ATOM     23  C   UNL     1      17.940  33.648  11.044  1.00  0.00     0.117 A 
ATOM     24  C   UNL     1      16.334  32.636  12.143  1.00  0.00     0.143 A 
ATOM     25  N   UNL     1      17.149  32.989  10.178  1.00  0.00    -0.269 N 
ATOM     26  N   UNL     1      16.184  32.364  10.834  1.00  0.00    -0.181 NA
BRANCH  25  27
ATOM     27  C   UNL     1      17.368  32.883   8.731  1.00  0.00     0.110 C 
ATOM     28  C   UNL     1      16.034  33.014   7.959  1.00  0.00     0.042 C 
ATOM     29  C   UNL     1      18.102  31.564   8.411  1.00  0.00     0.042 C 
ATOM     30  C   UNL     1      15.465  31.638   7.587  1.00  0.00     0.083 C 
ATOM     31  C   UNL     1      17.820  31.119   6.971  1.00  0.00     0.083 C 
ATOM     32  N   UNL     1      16.384  30.868   6.724  1.00  0.00    -0.317 NA
ATOM     33  H   UNL     1      16.192  29.851   6.877  1.00  0.00     0.122 HD
ENDBRANCH  25  27
ENDBRANCH   3  22
TORSDOF 6
ENDMDL
MODEL 13
REMARK VINA RESULT:    -9.270      3.368      6.209
REMARK INTER + INTRA:         -12.432
REMARK INTER:                 -11.880
REMARK INTRA:                  -0.551
REMARK UNBOUND:                -0.182
REMARK SMILES C[C@@H](Oc1cc(-c2cnn(C3CCNCC3)c2)cnc1N)c1c(Cl)ccc(F)c1Cl
REMARK SMILES IDX 4 1 5 2 6 3 18 4 19 5 20 6 3 7 2 8 1 9 22 10 23 11 29 12
REMARK SMILES IDX 24 13 25 14 27 15 30 16 26 17 28 18 21 19 7 22 17 23 8 24
REMARK SMILES IDX 10 25 9 26 11 27 12 28 16 29 13 30 15 31 14 32
REMARK H PARENT 21 20 21 21 14 33
REMARK Flexibility Score: inf
ROOT
ATOM      1  C   UNL     1      16.661  33.973  14.085  1.00  0.00     0.162 A 
ATOM      2  C   UNL     1      18.060  33.930  13.950  1.00  0.00     0.061 A 
ATOM      3  C   UNL     1      18.654  33.442  12.774  1.00  0.00     0.007 A 
ATOM      4  C   UNL     1      17.811  32.991  11.747  1.00  0.00     0.122 A 
ATOM      5  N   UNL     1      16.461  33.032  11.896  1.00  0.00    -0.235 NA
ATOM      6  C   UNL     1      15.870  33.504  13.025  1.00  0.00     0.166 A 
ENDROOT
BRANCH   1   7
ATOM      7  O   UNL     1      16.031  34.473  15.240  1.00  0.00    -0.482 OA
BRANCH   7   8
ATOM      8  C   UNL     1      16.147  33.918  16.553  1.00  0.00     0.203 C 
ATOM      9  C   UNL     1      14.760  33.554  17.078  1.00  0.00     0.058 C 
BRANCH   8  10
ATOM     10  C   UNL     1      16.844  34.884  17.508  1.00  0.00     0.032 A 
ATOM     11  C   UNL     1      16.124  35.920  18.164  1.00  0.00     0.049 A 
ATOM     12  C   UNL     1      18.232  34.749  17.780  1.00  0.00     0.085 A 
ATOM     13  Cl  UNL     1      14.389  36.155  17.964  1.00  0.00    -0.084 Cl
ATOM     14  C   UNL     1      16.788  36.803  19.022  1.00  0.00     0.024 A 
ATOM     15  C   UNL     1      18.873  35.650  18.641  1.00  0.00     0.142 A 
ATOM     16  Cl  UNL     1      19.211  33.463  17.071  1.00  0.00    -0.081 Cl
ATOM     17  C   UNL     1      18.154  36.674  19.253  1.00  0.00     0.042 A 
ATOM     18  F   UNL     1      20.202  35.532  18.889  1.00  0.00    -0.205 F 
ENDBRANCH   8  10
ENDBRANCH   7   8
ENDBRANCH   1   7
BRANCH   6  19
ATOM     19  N   UNL     1      14.443  33.528  13.108  1.00  0.00    -0.381 N 
ATOM     20  H   UNL     1      13.939  34.224  13.701  1.00  0.00     0.158 HD
ATOM     21  H   UNL     1      13.878  32.838  12.566  1.00  0.00     0.158 HD
ENDBRANCH   6  19
BRANCH   3  22
ATOM     22  C   UNL     1      20.133  33.410  12.621  1.00  0.00     0.021 A 
ATOM     23  C   UNL     1      21.032  34.440  12.850  1.00  0.00     0.117 A 
ATOM     24  C   UNL     1      20.924  32.340  12.225  1.00  0.00     0.143 A 
ATOM     25  N   UNL     1      22.271  33.985  12.588  1.00  0.00    -0.269 N 
ATOM     26  N   UNL     1      22.216  32.714  12.222  1.00  0.00    -0.181 NA
BRANCH  25  27
ATOM     27  C   UNL     1      23.516  34.738  12.774  1.00  0.00     0.110 C 
ATOM     28  C   UNL     1      23.391  35.729  13.954  1.00  0.00     0.042 C 
ATOM     29  C   UNL     1      23.901  35.443  11.457  1.00  0.00     0.042 C 
ATOM     30  C   UNL     1      23.058  37.145  13.464  1.00  0.00     0.083 C 
ATOM     31  C   UNL     1      24.780  36.670  11.732  1.00  0.00     0.083 C 
ATOM     32  N   UNL     1      24.098  37.683  12.564  1.00  0.00    -0.317 NA
ATOM     33  H   UNL     1      23.645  38.384  11.932  1.00  0.00     0.122 HD
ENDBRANCH  25  27
ENDBRANCH   3  22
TORSDOF 6
ENDMDL
MODEL 14
REMARK VINA RESULT:    -9.172      3.872      5.342
REMARK INTER + INTRA:         -12.302
REMARK INTER:                 -11.503
REMARK INTRA:                  -0.799
REMARK UNBOUND:                -0.182
REMARK SMILES C[C@@H](Oc1cc(-c2cnn(C3CCNCC3)c2)cnc1N)c1c(Cl)ccc(F)c1Cl
REMARK SMILES IDX 4 1 5 2 6 3 18 4 19 5 20 6 3 7 2 8 1 9 22 10 23 11 29 12
REMARK SMILES IDX 24 13 25 14 27 15 30 16 26 17 28 18 21 19 7 22 17 23 8 24
REMARK SMILES IDX 10 25 9 26 11 27 12 28 16 29 13 30 15 31 14 32
REMARK H PARENT 21 20 21 21 14 33
REMARK Flexibility Score: inf
ROOT
ATOM      1  C   UNL     1      20.261  34.391  14.556  1.00  0.00     0.162 A 
ATOM      2  C   UNL     1      19.603  34.549  13.323  1.00  0.00     0.061 A 
ATOM      3  C   UNL     1      18.719  33.564  12.849  1.00  0.00     0.007 A 
ATOM      4  C   UNL     1      18.525  32.418  13.635  1.00  0.00     0.122 A 
ATOM      5  N   UNL     1      19.175  32.277  14.819  1.00  0.00    -0.235 NA
ATOM      6  C   UNL     1      20.028  33.221  15.295  1.00  0.00     0.166 A 
ENDROOT
BRANCH   1   7
ATOM      7  O   UNL     1      21.137  35.363  15.072  1.00  0.00    -0.482 OA
BRANCH   7   8
ATOM      8  C   UNL     1      22.547  35.199  15.247  1.00  0.00     0.203 C 
ATOM      9  C   UNL     1      23.136  36.467  15.862  1.00  0.00     0.058 C 
BRANCH   8  10
ATOM     10  C   UNL     1      23.241  34.873  13.927  1.00  0.00     0.032 A 
ATOM     11  C   UNL     1      23.767  33.576  13.671  1.00  0.00     0.049 A 
ATOM     12  C   UNL     1      23.353  35.859  12.912  1.00  0.00     0.085 A 
ATOM     13  Cl  UNL     1      23.636  32.246  14.821  1.00  0.00    -0.084 Cl
ATOM     14  C   UNL     1      24.414  33.306  12.461  1.00  0.00     0.024 A 
ATOM     15  C   UNL     1      24.010  35.564  11.709  1.00  0.00     0.142 A 
ATOM     16  Cl  UNL     1      22.683  37.482  13.095  1.00  0.00    -0.081 Cl
ATOM     17  C   UNL     1      24.541  34.295  11.490  1.00  0.00     0.042 A 
ATOM     18  F   UNL     1      24.132  36.510  10.745  1.00  0.00    -0.205 F 
ENDBRANCH   8  10
ENDBRANCH   7   8
ENDBRANCH   1   7
BRANCH   6  19
ATOM     19  N   UNL     1      20.670  33.010  16.556  1.00  0.00    -0.381 N 
ATOM     20  H   UNL     1      21.580  33.464  16.791  1.00  0.00     0.158 HD
ATOM     21  H   UNL     1      20.227  32.389  17.268  1.00  0.00     0.158 HD
ENDBRANCH   6  19
BRANCH   3  22
ATOM     22  C   UNL     1      18.008  33.736  11.553  1.00  0.00     0.021 A 
ATOM     23  C   UNL     1      18.268  33.095  10.352  1.00  0.00     0.117 A 
ATOM     24  C   UNL     1      16.932  34.568  11.278  1.00  0.00     0.143 A 
ATOM     25  N   UNL     1      17.392  33.546   9.435  1.00  0.00    -0.269 N 
ATOM     26  N   UNL     1      16.573  34.427   9.989  1.00  0.00    -0.181 NA
BRANCH  25  27
ATOM     27  C   UNL     1      17.280  33.068   8.053  1.00  0.00     0.110 C 
ATOM     28  C   UNL     1      15.799  32.864   7.658  1.00  0.00     0.042 C 
ATOM     29  C   UNL     1      18.115  31.783   7.876  1.00  0.00     0.042 C 
ATOM     30  C   UNL     1      15.380  31.394   7.794  1.00  0.00     0.083 C 
ATOM     31  C   UNL     1      17.575  30.939   6.715  1.00  0.00     0.083 C 
ATOM     32  N   UNL     1      16.179  30.503   6.929  1.00  0.00    -0.317 NA
ATOM     33  H   UNL     1      16.190  29.553   7.368  1.00  0.00     0.122 HD
ENDBRANCH  25  27
ENDBRANCH   3  22
TORSDOF 6
ENDMDL
MODEL 15
REMARK VINA RESULT:    -9.135      4.903      6.511
REMARK INTER + INTRA:         -12.254
REMARK INTER:                 -11.706
REMARK INTRA:                  -0.549
REMARK UNBOUND:                -0.182
REMARK SMILES C[C@@H](Oc1cc(-c2cnn(C3CCNCC3)c2)cnc1N)c1c(Cl)ccc(F)c1Cl
REMARK SMILES IDX 4 1 5 2 6 3 18 4 19 5 20 6 3 7 2 8 1 9 22 10 23 11 29 12
REMARK SMILES IDX 24 13 25 14 27 15 30 16 26 17 28 18 21 19 7 22 17 23 8 24
REMARK SMILES IDX 10 25 9 26 11 27 12 28 16 29 13 30 15 31 14 32
REMARK H PARENT 21 20 21 21 14 33
REMARK Flexibility Score: inf
ROOT
ATOM      1  C   UNL     1      20.041  36.103  16.173  1.00  0.00     0.162 A 
ATOM      2  C   UNL     1      20.708  35.546  15.067  1.00  0.00     0.061 A 
ATOM      3  C   UNL     1      22.112  35.523  15.012  1.00  0.00     0.007 A 
ATOM      4  C   UNL     1      22.825  36.082  16.084  1.00  0.00     0.122 A 
ATOM      5  N   UNL     1      22.165  36.623  17.140  1.00  0.00    -0.235 NA
ATOM      6  C   UNL     1      20.809  36.650  17.213  1.00  0.00     0.166 A 
ENDROOT
BRANCH   1   7
ATOM      7  O   UNL     1      18.638  36.126  16.272  1.00  0.00    -0.482 OA
BRANCH   7   8
ATOM      8  C   UNL     1      17.847  35.213  17.038  1.00  0.00     0.203 C 
ATOM      9  C   UNL     1      18.595  33.890  17.188  1.00  0.00     0.058 C 
BRANCH   8  10
ATOM     10  C   UNL     1      16.480  34.985  16.399  1.00  0.00     0.032 A 
ATOM     11  C   UNL     1      15.282  35.358  17.068  1.00  0.00     0.049 A 
ATOM     12  C   UNL     1      16.380  34.413  15.103  1.00  0.00     0.085 A 
ATOM     13  Cl  UNL     1      15.270  36.135  18.650  1.00  0.00    -0.084 Cl
ATOM     14  C   UNL     1      14.039  35.123  16.469  1.00  0.00     0.024 A 
ATOM     15  C   UNL     1      15.122  34.185  14.527  1.00  0.00     0.142 A 
ATOM     16  Cl  UNL     1      17.801  33.969  14.155  1.00  0.00    -0.081 Cl
ATOM     17  C   UNL     1      13.960  34.534  15.211  1.00  0.00     0.042 A 
ATOM     18  F   UNL     1      15.024  33.623  13.295  1.00  0.00    -0.205 F 
ENDBRANCH   8  10
ENDBRANCH   7   8
ENDBRANCH   1   7
BRANCH   6  19
ATOM     19  N   UNL     1      20.182  37.227  18.362  1.00  0.00    -0.381 N 
ATOM     20  H   UNL     1      20.427  36.923  19.330  1.00  0.00     0.158 HD
ATOM     21  H   UNL     1      19.461  37.971  18.243  1.00  0.00     0.158 HD
ENDBRANCH   6  19
BRANCH   3  22
ATOM     22  C   UNL     1      22.821  34.919  13.851  1.00  0.00     0.021 A 
ATOM     23  C   UNL     1      24.146  34.520  13.780  1.00  0.00     0.117 A 
ATOM     24  C   UNL     1      22.301  34.623  12.598  1.00  0.00     0.143 A 
ATOM     25  N   UNL     1      24.375  34.031  12.547  1.00  0.00    -0.269 N 
ATOM     26  N   UNL     1      23.262  34.078  11.831  1.00  0.00    -0.181 NA
BRANCH  25  27
ATOM     27  C   UNL     1      25.632  33.436  12.083  1.00  0.00     0.110 C 
ATOM     28  C   UNL     1      25.363  32.202  11.192  1.00  0.00     0.042 C 
ATOM     29  C   UNL     1      26.527  33.099  13.294  1.00  0.00     0.042 C 
ATOM     30  C   UNL     1      25.486  30.897  11.989  1.00  0.00     0.083 C 
ATOM     31  C   UNL     1      27.513  31.977  12.947  1.00  0.00     0.083 C 
ATOM     32  N   UNL     1      26.834  30.720  12.568  1.00  0.00    -0.317 NA
ATOM     33  H   UNL     1      26.742  30.120  13.420  1.00  0.00     0.122 HD
ENDBRANCH  25  27
ENDBRANCH   3  22
TORSDOF 6
ENDMDL
