MODEL 1
REMARK VINA RESULT:    -9.321      0.000      0.000
REMARK INTER + INTRA:         -11.585
REMARK INTER:                 -12.046
REMARK INTRA:                   0.460
REMARK UNBOUND:                 0.460
REMARK SMILES CC(=O)c1c(C)c2cnc(Nc3ccc(N4CCNCC4)cn3)nc2n(C2CCCC2)c1=O
REMARK SMILES IDX 11 1 10 3 4 4 5 5 32 6 6 7 7 8 26 9 33 10 8 11 25 12 9 13
REMARK SMILES IDX 24 14 2 15 1 16 3 17 27 18 28 19 31 20 29 21 30 22 12 23
REMARK SMILES IDX 23 24 13 25 22 26 14 27 15 28 16 29 17 30 21 31 18 32 20 33
REMARK SMILES IDX 19 34
REMARK H PARENT 11 2 19 35
REMARK Flexibility Score: inf
ROOT
ATOM      1  N   UNL     1      10.607  13.882  13.695  1.00  0.00    -0.309 N 
ATOM      2  H   UNL     1      10.293  14.688  14.280  1.00  0.00     0.171 HD
ENDROOT
BRANCH   1   3
ATOM      3  C   UNL     1      11.076  12.709  14.365  1.00  0.00     0.230 A 
ATOM      4  C   UNL     1      11.652   8.834  17.465  1.00  0.00     0.086 A 
ATOM      5  C   UNL     1      12.531   9.455  16.542  1.00  0.00    -0.022 A 
ATOM      6  C   UNL     1      10.409   9.432  17.750  1.00  0.00     0.263 A 
ATOM      7  C   UNL     1      13.944   8.956  16.344  1.00  0.00     0.046 C 
ATOM      8  C   UNL     1      12.058  10.557  15.804  1.00  0.00     0.040 A 
ATOM      9  N   UNL     1      10.023  10.605  17.133  1.00  0.00    -0.289 N 
ATOM     10  O   UNL     1       9.648   8.872  18.588  1.00  0.00    -0.268 OA
ATOM     11  C   UNL     1      12.815  11.170  14.779  1.00  0.00     0.127 A 
ATOM     12  C   UNL     1      10.775  11.094  16.089  1.00  0.00     0.148 A 
ATOM     13  N   UNL     1      12.306  12.207  14.082  1.00  0.00    -0.221 NA
ATOM     14  N   UNL     1      10.348  12.168  15.362  1.00  0.00    -0.194 NA
BRANCH   4  15
ATOM     15  C   UNL     1      12.011   7.556  18.143  1.00  0.00     0.165 C 
ATOM     16  C   UNL     1      12.928   7.539  19.324  1.00  0.00     0.094 C 
ATOM     17  O   UNL     1      11.528   6.472  17.718  1.00  0.00    -0.294 OA
ENDBRANCH   4  15
BRANCH   9  18
ATOM     18  C   UNL     1       8.735  11.240  17.554  1.00  0.00     0.092 C 
ATOM     19  C   UNL     1       7.633  10.240  17.951  1.00  0.00     0.025 C 
ATOM     20  C   UNL     1       8.927  12.192  18.730  1.00  0.00     0.025 C 
ATOM     21  C   UNL     1       7.324  10.495  19.430  1.00  0.00     0.002 C 
ATOM     22  C   UNL     1       8.334  11.512  19.951  1.00  0.00     0.002 C 
ENDBRANCH   9  18
ENDBRANCH   1   3
BRANCH   1  23
ATOM     23  C   UNL     1      11.074  14.169  12.381  1.00  0.00     0.132 A 
ATOM     24  N   UNL     1      11.980  15.163  12.186  1.00  0.00    -0.237 NA
ATOM     25  C   UNL     1      10.584  13.444  11.290  1.00  0.00     0.049 A 
ATOM     26  C   UNL     1      12.380  15.529  10.934  1.00  0.00     0.139 A 
ATOM     27  C   UNL     1      11.005  13.768  10.004  1.00  0.00     0.031 A 
ATOM     28  C   UNL     1      11.894  14.850   9.796  1.00  0.00     0.055 A 
BRANCH  28  29
ATOM     29  N   UNL     1      12.263  15.274   8.461  1.00  0.00    -0.368 N 
ATOM     30  C   UNL     1      11.205  15.494   7.449  1.00  0.00     0.132 C 
ATOM     31  C   UNL     1      13.655  15.132   7.999  1.00  0.00     0.132 C 
ATOM     32  C   UNL     1      11.713  15.065   6.079  1.00  0.00     0.102 C 
ATOM     33  C   UNL     1      13.943  15.931   6.709  1.00  0.00     0.102 C 
ATOM     34  N   UNL     1      12.870  15.880   5.681  1.00  0.00    -0.313 NA
ATOM     35  H   UNL     1      12.519  16.859   5.533  1.00  0.00     0.122 HD
ENDBRANCH  28  29
ENDBRANCH   1  23
TORSDOF 5
ENDMDL
MODEL 2
REMARK VINA RESULT:    -9.158      3.743     10.209
REMARK INTER + INTRA:         -11.375
REMARK INTER:                 -12.267
REMARK INTRA:                   0.892
REMARK UNBOUND:                 0.460
REMARK SMILES CC(=O)c1c(C)c2cnc(Nc3ccc(N4CCNCC4)cn3)nc2n(C2CCCC2)c1=O
REMARK SMILES IDX 11 1 10 3 4 4 5 5 32 6 6 7 7 8 26 9 33 10 8 11 25 12 9 13
REMARK SMILES IDX 24 14 2 15 1 16 3 17 27 18 28 19 31 20 29 21 30 22 12 23
REMARK SMILES IDX 23 24 13 25 22 26 14 27 15 28 16 29 17 30 21 31 18 32 20 33
REMARK SMILES IDX 19 34
REMARK H PARENT 11 2 19 35
REMARK Flexibility Score: inf
ROOT
ATOM      1  N   UNL     1      12.477  10.465  14.798  1.00  0.00    -0.309 N 
ATOM      2  H   UNL     1      13.259  10.390  14.111  1.00  0.00     0.171 HD
ENDROOT
BRANCH   1   3
ATOM      3  C   UNL     1      11.514  11.504  14.608  1.00  0.00     0.230 A 
ATOM      4  C   UNL     1       8.676  15.160  12.726  1.00  0.00     0.086 A 
ATOM      5  C   UNL     1       8.921  14.733  14.055  1.00  0.00    -0.022 A 
ATOM      6  C   UNL     1       9.437  14.620  11.671  1.00  0.00     0.263 A 
ATOM      7  C   UNL     1       8.264  15.413  15.234  1.00  0.00     0.046 C 
ATOM      8  C   UNL     1       9.797  13.649  14.259  1.00  0.00     0.040 A 
ATOM      9  N   UNL     1      10.408  13.668  11.906  1.00  0.00    -0.289 N 
ATOM     10  O   UNL     1       9.214  15.027  10.496  1.00  0.00    -0.268 OA
ATOM     11  C   UNL     1      10.016  13.075  15.533  1.00  0.00     0.127 A 
ATOM     12  C   UNL     1      10.504  13.100  13.157  1.00  0.00     0.148 A 
ATOM     13  N   UNL     1      10.845  12.020  15.672  1.00  0.00    -0.221 NA
ATOM     14  N   UNL     1      11.352  12.056  13.388  1.00  0.00    -0.194 NA
BRANCH   4  15
ATOM     15  C   UNL     1       7.624  16.170  12.415  1.00  0.00     0.165 C 
ATOM     16  C   UNL     1       7.930  17.634  12.434  1.00  0.00     0.094 C 
ATOM     17  O   UNL     1       6.460  15.783  12.124  1.00  0.00    -0.294 OA
ENDBRANCH   4  15
BRANCH   9  18
ATOM     18  C   UNL     1      11.248  13.209  10.756  1.00  0.00     0.092 C 
ATOM     19  C   UNL     1      11.369  14.231   9.610  1.00  0.00     0.025 C 
ATOM     20  C   UNL     1      12.665  12.850  11.192  1.00  0.00     0.025 C 
ATOM     21  C   UNL     1      12.851  14.607   9.514  1.00  0.00     0.002 C 
ATOM     22  C   UNL     1      13.577  13.951  10.685  1.00  0.00     0.002 C 
ENDBRANCH   9  18
ENDBRANCH   1   3
BRANCH   1  23
ATOM     23  C   UNL     1      12.704   9.956  16.108  1.00  0.00     0.132 A 
ATOM     24  N   UNL     1      11.802   9.110  16.672  1.00  0.00    -0.237 NA
ATOM     25  C   UNL     1      13.842  10.344  16.822  1.00  0.00     0.049 A 
ATOM     26  C   UNL     1      11.938   8.676  17.959  1.00  0.00     0.139 A 
ATOM     27  C   UNL     1      14.028   9.885  18.123  1.00  0.00     0.031 A 
ATOM     28  C   UNL     1      13.053   9.062  18.734  1.00  0.00     0.055 A 
BRANCH  28  29
ATOM     29  N   UNL     1      13.171   8.659  20.121  1.00  0.00    -0.368 N 
ATOM     30  C   UNL     1      12.672   9.559  21.185  1.00  0.00     0.132 C 
ATOM     31  C   UNL     1      14.090   7.570  20.498  1.00  0.00     0.132 C 
ATOM     32  C   UNL     1      13.582   9.462  22.403  1.00  0.00     0.102 C 
ATOM     33  C   UNL     1      13.843   7.048  21.931  1.00  0.00     0.102 C 
ATOM     34  N   UNL     1      13.568   8.096  22.947  1.00  0.00    -0.313 NA
ATOM     35  H   UNL     1      12.604   7.929  23.329  1.00  0.00     0.122 HD
ENDBRANCH  28  29
ENDBRANCH   1  23
TORSDOF 5
ENDMDL
MODEL 3
REMARK VINA RESULT:    -9.143      2.164      2.715
REMARK INTER + INTRA:         -11.356
REMARK INTER:                 -11.686
REMARK INTRA:                   0.330
REMARK UNBOUND:                 0.460
REMARK SMILES CC(=O)c1c(C)c2cnc(Nc3ccc(N4CCNCC4)cn3)nc2n(C2CCCC2)c1=O
REMARK SMILES IDX 11 1 10 3 4 4 5 5 32 6 6 7 7 8 26 9 33 10 8 11 25 12 9 13
REMARK SMILES IDX 24 14 2 15 1 16 3 17 27 18 28 19 31 20 29 21 30 22 12 23
REMARK SMILES IDX 23 24 13 25 22 26 14 27 15 28 16 29 17 30 21 31 18 32 20 33
REMARK SMILES IDX 19 34
REMARK H PARENT 11 2 19 35
REMARK Flexibility Score: inf
ROOT
ATOM      1  N   UNL     1      10.677  14.750  14.677  1.00  0.00    -0.309 N 
ATOM      2  H   UNL     1      11.161  15.573  15.098  1.00  0.00     0.171 HD
ENDROOT
BRANCH   1   3
ATOM      3  C   UNL     1      11.115  13.445  15.062  1.00  0.00     0.230 A 
ATOM      4  C   UNL     1      11.560   8.937  17.169  1.00  0.00     0.086 A 
ATOM      5  C   UNL     1      12.472   9.744  16.444  1.00  0.00    -0.022 A 
ATOM      6  C   UNL     1      10.314   9.471  17.554  1.00  0.00     0.263 A 
ATOM      7  C   UNL     1      13.886   9.283  16.172  1.00  0.00     0.046 C 
ATOM      8  C   UNL     1      12.032  10.997  15.976  1.00  0.00     0.040 A 
ATOM      9  N   UNL     1       9.958  10.762  17.222  1.00  0.00    -0.289 N 
ATOM     10  O   UNL     1       9.523   8.741  18.214  1.00  0.00    -0.268 OA
ATOM     11  C   UNL     1      12.826  11.823  15.146  1.00  0.00     0.127 A 
ATOM     12  C   UNL     1      10.746  11.472  16.344  1.00  0.00     0.148 A 
ATOM     13  N   UNL     1      12.348  13.003  14.702  1.00  0.00    -0.221 NA
ATOM     14  N   UNL     1      10.352  12.694  15.882  1.00  0.00    -0.194 NA
BRANCH   4  15
ATOM     15  C   UNL     1      11.886   7.529  17.534  1.00  0.00     0.165 C 
ATOM     16  C   UNL     1      12.708   7.215  18.744  1.00  0.00     0.094 C 
ATOM     17  O   UNL     1      11.456   6.587  16.816  1.00  0.00    -0.294 OA
ENDBRANCH   4  15
BRANCH   9  18
ATOM     18  C   UNL     1       8.664  11.300  17.747  1.00  0.00     0.092 C 
ATOM     19  C   UNL     1       7.585  10.230  17.995  1.00  0.00     0.025 C 
ATOM     20  C   UNL     1       8.852  12.064  19.053  1.00  0.00     0.025 C 
ATOM     21  C   UNL     1       7.288  10.250  19.498  1.00  0.00     0.002 C 
ATOM     22  C   UNL     1       8.286  11.194  20.160  1.00  0.00     0.002 C 
ENDBRANCH   9  18
ENDBRANCH   1   3
BRANCH   1  23
ATOM     23  C   UNL     1      10.060  14.932  13.406  1.00  0.00     0.132 A 
ATOM     24  N   UNL     1      10.818  15.252  12.325  1.00  0.00    -0.237 NA
ATOM     25  C   UNL     1       8.674  14.804  13.276  1.00  0.00     0.049 A 
ATOM     26  C   UNL     1      10.254  15.526  11.113  1.00  0.00     0.139 A 
ATOM     27  C   UNL     1       8.074  15.038  12.042  1.00  0.00     0.031 A 
ATOM     28  C   UNL     1       8.856  15.441  10.935  1.00  0.00     0.055 A 
BRANCH  28  29
ATOM     29  N   UNL     1       8.244  15.793   9.670  1.00  0.00    -0.368 N 
ATOM     30  C   UNL     1       9.082  16.360   8.589  1.00  0.00     0.132 C 
ATOM     31  C   UNL     1       6.781  15.940   9.572  1.00  0.00     0.132 C 
ATOM     32  C   UNL     1       8.280  17.399   7.815  1.00  0.00     0.102 C 
ATOM     33  C   UNL     1       6.279  15.977   8.112  1.00  0.00     0.102 C 
ATOM     34  N   UNL     1       7.112  16.775   7.176  1.00  0.00    -0.313 NA
ATOM     35  H   UNL     1       7.478  16.126   6.436  1.00  0.00     0.122 HD
ENDBRANCH  28  29
ENDBRANCH   1  23
TORSDOF 5
ENDMDL
MODEL 4
REMARK VINA RESULT:    -9.103      3.805      6.100
REMARK INTER + INTRA:         -11.304
REMARK INTER:                 -11.496
REMARK INTRA:                   0.192
REMARK UNBOUND:                 0.460
REMARK SMILES CC(=O)c1c(C)c2cnc(Nc3ccc(N4CCNCC4)cn3)nc2n(C2CCCC2)c1=O
REMARK SMILES IDX 11 1 10 3 4 4 5 5 32 6 6 7 7 8 26 9 33 10 8 11 25 12 9 13
REMARK SMILES IDX 24 14 2 15 1 16 3 17 27 18 28 19 31 20 29 21 30 22 12 23
REMARK SMILES IDX 23 24 13 25 22 26 14 27 15 28 16 29 17 30 21 31 18 32 20 33
REMARK SMILES IDX 19 34
REMARK H PARENT 11 2 19 35
REMARK Flexibility Score: inf
ROOT
ATOM      1  N   UNL     1      10.450  14.317  14.067  1.00  0.00    -0.309 N 
ATOM      2  H   UNL     1      10.626  14.512  13.057  1.00  0.00     0.171 HD
ENDROOT
BRANCH   1   3
ATOM      3  C   UNL     1      10.956  13.097  14.613  1.00  0.00     0.230 A 
ATOM      4  C   UNL     1      11.660   8.950  17.309  1.00  0.00     0.086 A 
ATOM      5  C   UNL     1      12.514   9.682  16.446  1.00  0.00    -0.022 A 
ATOM      6  C   UNL     1      10.404   9.484  17.661  1.00  0.00     0.263 A 
ATOM      7  C   UNL     1      13.937   9.243  16.190  1.00  0.00     0.046 C 
ATOM      8  C   UNL     1      12.006  10.839  15.825  1.00  0.00     0.040 A 
ATOM      9  N   UNL     1       9.982  10.701  17.166  1.00  0.00    -0.289 N 
ATOM     10  O   UNL     1       9.666   8.823  18.444  1.00  0.00    -0.268 OA
ATOM     11  C   UNL     1      12.738  11.570  14.860  1.00  0.00     0.127 A 
ATOM     12  C   UNL     1      10.712  11.311  16.170  1.00  0.00     0.148 A 
ATOM     13  N   UNL     1      12.195  12.658  14.274  1.00  0.00    -0.221 NA
ATOM     14  N   UNL     1      10.251  12.440  15.557  1.00  0.00    -0.194 NA
BRANCH   4  15
ATOM     15  C   UNL     1      12.058   7.621  17.854  1.00  0.00     0.165 C 
ATOM     16  C   UNL     1      12.927   7.512  19.066  1.00  0.00     0.094 C 
ATOM     17  O   UNL     1      11.649   6.571  17.288  1.00  0.00    -0.294 OA
ENDBRANCH   4  15
BRANCH   9  18
ATOM     18  C   UNL     1       8.683  11.257  17.656  1.00  0.00     0.092 C 
ATOM     19  C   UNL     1       7.622  10.191  17.992  1.00  0.00     0.025 C 
ATOM     20  C   UNL     1       8.866  12.120  18.900  1.00  0.00     0.025 C 
ATOM     21  C   UNL     1       7.333  10.320  19.491  1.00  0.00     0.002 C 
ATOM     22  C   UNL     1       8.320  11.327  20.074  1.00  0.00     0.002 C 
ENDBRANCH   9  18
ENDBRANCH   1   3
BRANCH   1  23
ATOM     23  C   UNL     1       9.311  14.929  14.663  1.00  0.00     0.132 A 
ATOM     24  N   UNL     1       9.460  15.706  15.768  1.00  0.00    -0.237 NA
ATOM     25  C   UNL     1       8.038  14.712  14.126  1.00  0.00     0.049 A 
ATOM     26  C   UNL     1       8.383  16.232  16.421  1.00  0.00     0.139 A 
ATOM     27  C   UNL     1       6.925  15.269  14.747  1.00  0.00     0.031 A 
ATOM     28  C   UNL     1       7.074  16.019  15.938  1.00  0.00     0.055 A 
BRANCH  28  29
ATOM     29  N   UNL     1       5.923  16.519  16.661  1.00  0.00    -0.368 N 
ATOM     30  C   UNL     1       4.589  16.486  16.018  1.00  0.00     0.132 C 
ATOM     31  C   UNL     1       6.109  17.378  17.844  1.00  0.00     0.132 C 
ATOM     32  C   UNL     1       3.792  17.714  16.437  1.00  0.00     0.102 C 
ATOM     33  C   UNL     1       4.819  17.535  18.679  1.00  0.00     0.102 C 
ATOM     34  N   UNL     1       3.573  17.715  17.890  1.00  0.00    -0.313 NA
ATOM     35  H   UNL     1       2.937  16.907  18.104  1.00  0.00     0.122 HD
ENDBRANCH  28  29
ENDBRANCH   1  23
TORSDOF 5
ENDMDL
MODEL 5
REMARK VINA RESULT:    -9.092      4.158      6.705
REMARK INTER + INTRA:         -11.290
REMARK INTER:                 -10.938
REMARK INTRA:                  -0.353
REMARK UNBOUND:                 0.460
REMARK SMILES CC(=O)c1c(C)c2cnc(Nc3ccc(N4CCNCC4)cn3)nc2n(C2CCCC2)c1=O
REMARK SMILES IDX 11 1 10 3 4 4 5 5 32 6 6 7 7 8 26 9 33 10 8 11 25 12 9 13
REMARK SMILES IDX 24 14 2 15 1 16 3 17 27 18 28 19 31 20 29 21 30 22 12 23
REMARK SMILES IDX 23 24 13 25 22 26 14 27 15 28 16 29 17 30 21 31 18 32 20 33
REMARK SMILES IDX 19 34
REMARK H PARENT 11 2 19 35
REMARK Flexibility Score: inf
ROOT
ATOM      1  N   UNL     1       9.829  14.984  14.649  1.00  0.00    -0.309 N 
ATOM      2  H   UNL     1      10.236  15.420  13.792  1.00  0.00     0.171 HD
ENDROOT
BRANCH   1   3
ATOM      3  C   UNL     1      10.243  13.659  14.989  1.00  0.00     0.230 A 
ATOM      4  C   UNL     1      11.431   9.452  17.408  1.00  0.00     0.086 A 
ATOM      5  C   UNL     1      11.697   9.901  16.090  1.00  0.00    -0.022 A 
ATOM      6  C   UNL     1      10.861  10.340  18.342  1.00  0.00     0.263 A 
ATOM      7  C   UNL     1      12.474   9.050  15.111  1.00  0.00     0.046 C 
ATOM      8  C   UNL     1      11.219  11.168  15.705  1.00  0.00     0.040 A 
ATOM      9  N   UNL     1      10.541  11.636  17.992  1.00  0.00    -0.289 N 
ATOM     10  O   UNL     1      10.648   9.925  19.516  1.00  0.00    -0.268 OA
ATOM     11  C   UNL     1      11.330  11.655  14.381  1.00  0.00     0.127 A 
ATOM     12  C   UNL     1      10.601  12.009  16.668  1.00  0.00     0.148 A 
ATOM     13  N   UNL     1      10.832  12.866  14.056  1.00  0.00    -0.221 NA
ATOM     14  N   UNL     1      10.156  13.234  16.266  1.00  0.00    -0.194 NA
BRANCH   4  15
ATOM     15  C   UNL     1      11.738   8.056  17.831  1.00  0.00     0.165 C 
ATOM     16  C   UNL     1      13.035   7.717  18.494  1.00  0.00     0.094 C 
ATOM     17  O   UNL     1      10.887   7.148  17.635  1.00  0.00    -0.294 OA
ENDBRANCH   4  15
BRANCH   9  18
ATOM     18  C   UNL     1      10.032  12.555  19.057  1.00  0.00     0.092 C 
ATOM     19  C   UNL     1      10.570  13.996  18.963  1.00  0.00     0.025 C 
ATOM     20  C   UNL     1       8.509  12.640  19.057  1.00  0.00     0.025 C 
ATOM     21  C   UNL     1       9.358  14.899  18.714  1.00  0.00     0.002 C 
ATOM     22  C   UNL     1       8.142  14.003  18.498  1.00  0.00     0.002 C 
ENDBRANCH   9  18
ENDBRANCH   1   3
BRANCH   1  23
ATOM     23  C   UNL     1       8.551  15.447  15.075  1.00  0.00     0.132 A 
ATOM     24  N   UNL     1       8.444  16.634  15.728  1.00  0.00    -0.237 NA
ATOM     25  C   UNL     1       7.412  14.671  14.843  1.00  0.00     0.049 A 
ATOM     26  C   UNL     1       7.253  17.066  16.234  1.00  0.00     0.139 A 
ATOM     27  C   UNL     1       6.176  15.105  15.311  1.00  0.00     0.031 A 
ATOM     28  C   UNL     1       6.077  16.306  16.053  1.00  0.00     0.055 A 
BRANCH  28  29
ATOM     29  N   UNL     1       4.822  16.725  16.642  1.00  0.00    -0.368 N 
ATOM     30  C   UNL     1       3.630  16.883  15.778  1.00  0.00     0.132 C 
ATOM     31  C   UNL     1       4.802  17.340  17.981  1.00  0.00     0.132 C 
ATOM     32  C   UNL     1       2.792  18.054  16.275  1.00  0.00     0.102 C 
ATOM     33  C   UNL     1       3.383  17.409  18.588  1.00  0.00     0.102 C 
ATOM     34  N   UNL     1       2.308  17.798  17.639  1.00  0.00    -0.313 NA
ATOM     35  H   UNL     1       1.628  17.000  17.578  1.00  0.00     0.122 HD
ENDBRANCH  28  29
ENDBRANCH   1  23
TORSDOF 5
ENDMDL
MODEL 6
REMARK VINA RESULT:    -8.760      4.905      8.153
REMARK INTER + INTRA:         -10.861
REMARK INTER:                 -11.012
REMARK INTRA:                   0.151
REMARK UNBOUND:                 0.460
REMARK SMILES CC(=O)c1c(C)c2cnc(Nc3ccc(N4CCNCC4)cn3)nc2n(C2CCCC2)c1=O
REMARK SMILES IDX 11 1 10 3 4 4 5 5 32 6 6 7 7 8 26 9 33 10 8 11 25 12 9 13
REMARK SMILES IDX 24 14 2 15 1 16 3 17 27 18 28 19 31 20 29 21 30 22 12 23
REMARK SMILES IDX 23 24 13 25 22 26 14 27 15 28 16 29 17 30 21 31 18 32 20 33
REMARK SMILES IDX 19 34
REMARK H PARENT 11 2 19 35
REMARK Flexibility Score: inf
ROOT
ATOM      1  N   UNL     1       8.809  15.444  16.330  1.00  0.00    -0.309 N 
ATOM      2  H   UNL     1       9.313  15.809  15.493  1.00  0.00     0.171 HD
ENDROOT
BRANCH   1   3
ATOM      3  C   UNL     1       9.111  14.118  16.770  1.00  0.00     0.230 A 
ATOM      4  C   UNL     1      10.802   9.432  17.144  1.00  0.00     0.086 A 
ATOM      5  C   UNL     1       9.807  10.145  17.858  1.00  0.00    -0.022 A 
ATOM      6  C   UNL     1      11.382  10.008  15.996  1.00  0.00     0.263 A 
ATOM      7  C   UNL     1       9.026   9.498  18.978  1.00  0.00     0.046 C 
ATOM      8  C   UNL     1       9.556  11.484  17.500  1.00  0.00     0.040 A 
ATOM      9  N   UNL     1      11.010  11.265  15.563  1.00  0.00    -0.289 N 
ATOM     10  O   UNL     1      12.255   9.349  15.366  1.00  0.00    -0.268 OA
ATOM     11  C   UNL     1       8.669  12.314  18.224  1.00  0.00     0.127 A 
ATOM     12  C   UNL     1      10.205  12.041  16.366  1.00  0.00     0.148 A 
ATOM     13  N   UNL     1       8.483  13.598  17.856  1.00  0.00    -0.221 NA
ATOM     14  N   UNL     1       9.934  13.338  16.040  1.00  0.00    -0.194 NA
BRANCH   4  15
ATOM     15  C   UNL     1      11.256   8.081  17.582  1.00  0.00     0.165 C 
ATOM     16  C   UNL     1      12.355   7.923  18.584  1.00  0.00     0.094 C 
ATOM     17  O   UNL     1      10.700   7.055  17.105  1.00  0.00    -0.294 OA
ENDBRANCH   4  15
BRANCH   9  18
ATOM     18  C   UNL     1      11.590  11.777  14.283  1.00  0.00     0.092 C 
ATOM     19  C   UNL     1      10.634  12.661  13.460  1.00  0.00     0.025 C 
ATOM     20  C   UNL     1      12.863  12.585  14.517  1.00  0.00     0.025 C 
ATOM     21  C   UNL     1      11.278  14.048  13.384  1.00  0.00     0.002 C 
ATOM     22  C   UNL     1      12.511  14.042  14.281  1.00  0.00     0.002 C 
ENDBRANCH   9  18
ENDBRANCH   1   3
BRANCH   1  23
ATOM     23  C   UNL     1       7.530  16.000  16.618  1.00  0.00     0.132 A 
ATOM     24  N   UNL     1       7.361  16.772  17.724  1.00  0.00    -0.237 NA
ATOM     25  C   UNL     1       6.445  15.733  15.778  1.00  0.00     0.049 A 
ATOM     26  C   UNL     1       6.132  17.244  18.084  1.00  0.00     0.139 A 
ATOM     27  C   UNL     1       5.187  16.235  16.098  1.00  0.00     0.031 A 
ATOM     28  C   UNL     1       4.998  16.979  17.287  1.00  0.00     0.055 A 
BRANCH  28  29
ATOM     29  N   UNL     1       3.680  17.421  17.696  1.00  0.00    -0.368 N 
ATOM     30  C   UNL     1       2.577  17.430  16.708  1.00  0.00     0.132 C 
ATOM     31  C   UNL     1       3.512  18.193  18.939  1.00  0.00     0.132 C 
ATOM     32  C   UNL     1       1.666  18.622  16.972  1.00  0.00     0.102 C 
ATOM     33  C   UNL     1       2.039  18.285  19.394  1.00  0.00     0.102 C 
ATOM     34  N   UNL     1       1.055  18.516  18.305  1.00  0.00    -0.313 NA
ATOM     35  H   UNL     1       0.403  17.693  18.279  1.00  0.00     0.122 HD
ENDBRANCH  28  29
ENDBRANCH   1  23
TORSDOF 5
ENDMDL
MODEL 7
REMARK VINA RESULT:    -8.748      1.541      3.834
REMARK INTER + INTRA:         -10.845
REMARK INTER:                 -12.287
REMARK INTRA:                   1.441
REMARK UNBOUND:                 0.460
REMARK SMILES CC(=O)c1c(C)c2cnc(Nc3ccc(N4CCNCC4)cn3)nc2n(C2CCCC2)c1=O
REMARK SMILES IDX 11 1 10 3 4 4 5 5 32 6 6 7 7 8 26 9 33 10 8 11 25 12 9 13
REMARK SMILES IDX 24 14 2 15 1 16 3 17 27 18 28 19 31 20 29 21 30 22 12 23
REMARK SMILES IDX 23 24 13 25 22 26 14 27 15 28 16 29 17 30 21 31 18 32 20 33
REMARK SMILES IDX 19 34
REMARK H PARENT 11 2 19 35
REMARK Flexibility Score: inf
ROOT
ATOM      1  N   UNL     1      12.608  12.456  12.162  1.00  0.00    -0.309 N 
ATOM      2  H   UNL     1      13.063  11.548  11.924  1.00  0.00     0.171 HD
ENDROOT
BRANCH   1   3
ATOM      3  C   UNL     1      11.830  12.524  13.359  1.00  0.00     0.230 A 
ATOM      4  C   UNL     1       9.478  11.488  17.644  1.00  0.00     0.086 A 
ATOM      5  C   UNL     1       9.354  12.560  16.724  1.00  0.00    -0.022 A 
ATOM      6  C   UNL     1      10.277  10.376  17.312  1.00  0.00     0.263 A 
ATOM      7  C   UNL     1       8.368  13.682  16.951  1.00  0.00     0.046 C 
ATOM      8  C   UNL     1      10.178  12.560  15.581  1.00  0.00     0.040 A 
ATOM      9  N   UNL     1      10.957  10.319  16.112  1.00  0.00    -0.289 N 
ATOM     10  O   UNL     1      10.360   9.425  18.138  1.00  0.00    -0.268 OA
ATOM     11  C   UNL     1      10.213  13.638  14.667  1.00  0.00     0.127 A 
ATOM     12  C   UNL     1      11.009  11.440  15.315  1.00  0.00     0.148 A 
ATOM     13  N   UNL     1      11.040  13.601  13.601  1.00  0.00    -0.221 NA
ATOM     14  N   UNL     1      11.789  11.466  14.195  1.00  0.00    -0.194 NA
BRANCH   4  15
ATOM     15  C   UNL     1       8.782  11.510  18.962  1.00  0.00     0.165 C 
ATOM     16  C   UNL     1       7.544  10.704  19.195  1.00  0.00     0.094 C 
ATOM     17  O   UNL     1       9.249  12.213  19.898  1.00  0.00    -0.294 OA
ENDBRANCH   4  15
BRANCH   9  18
ATOM     18  C   UNL     1      11.707   9.068  15.779  1.00  0.00     0.092 C 
ATOM     19  C   UNL     1      13.148   9.303  15.286  1.00  0.00     0.025 C 
ATOM     20  C   UNL     1      11.786   8.117  16.968  1.00  0.00     0.025 C 
ATOM     21  C   UNL     1      14.074   8.639  16.311  1.00  0.00     0.002 C 
ATOM     22  C   UNL     1      13.215   8.162  17.478  1.00  0.00     0.002 C 
ENDBRANCH   9  18
ENDBRANCH   1   3
BRANCH   1  23
ATOM     23  C   UNL     1      12.312  13.342  11.087  1.00  0.00     0.132 A 
ATOM     24  N   UNL     1      11.118  13.253  10.445  1.00  0.00    -0.237 NA
ATOM     25  C   UNL     1      13.258  14.287  10.678  1.00  0.00     0.049 A 
ATOM     26  C   UNL     1      10.835  14.020   9.352  1.00  0.00     0.139 A 
ATOM     27  C   UNL     1      12.982  15.111   9.591  1.00  0.00     0.031 A 
ATOM     28  C   UNL     1      11.767  14.968   8.879  1.00  0.00     0.055 A 
BRANCH  28  29
ATOM     29  N   UNL     1      11.502  15.740   7.682  1.00  0.00    -0.368 N 
ATOM     30  C   UNL     1      10.621  16.927   7.763  1.00  0.00     0.132 C 
ATOM     31  C   UNL     1      11.783  15.166   6.355  1.00  0.00     0.132 C 
ATOM     32  C   UNL     1       9.800  17.040   6.484  1.00  0.00     0.102 C 
ATOM     33  C   UNL     1      11.768  16.223   5.229  1.00  0.00     0.102 C 
ATOM     34  N   UNL     1      10.682  17.232   5.323  1.00  0.00    -0.313 NA
ATOM     35  H   UNL     1      11.127  18.177   5.430  1.00  0.00     0.122 HD
ENDBRANCH  28  29
ENDBRANCH   1  23
TORSDOF 5
ENDMDL
MODEL 8
REMARK VINA RESULT:    -8.723      2.483      4.505
REMARK INTER + INTRA:         -10.813
REMARK INTER:                 -10.953
REMARK INTRA:                   0.140
REMARK UNBOUND:                 0.460
REMARK SMILES CC(=O)c1c(C)c2cnc(Nc3ccc(N4CCNCC4)cn3)nc2n(C2CCCC2)c1=O
REMARK SMILES IDX 11 1 10 3 4 4 5 5 32 6 6 7 7 8 26 9 33 10 8 11 25 12 9 13
REMARK SMILES IDX 24 14 2 15 1 16 3 17 27 18 28 19 31 20 29 21 30 22 12 23
REMARK SMILES IDX 23 24 13 25 22 26 14 27 15 28 16 29 17 30 21 31 18 32 20 33
REMARK SMILES IDX 19 34
REMARK H PARENT 11 2 19 35
REMARK Flexibility Score: inf
ROOT
ATOM      1  N   UNL     1      11.453  13.950  17.804  1.00  0.00    -0.309 N 
ATOM      2  H   UNL     1      11.408  14.919  18.188  1.00  0.00     0.171 HD
ENDROOT
BRANCH   1   3
ATOM      3  C   UNL     1      11.974  12.917  18.645  1.00  0.00     0.230 A 
ATOM      4  C   UNL     1      13.265   8.528  20.651  1.00  0.00     0.086 A 
ATOM      5  C   UNL     1      13.221   9.841  21.181  1.00  0.00    -0.022 A 
ATOM      6  C   UNL     1      12.723   8.275  19.374  1.00  0.00     0.263 A 
ATOM      7  C   UNL     1      13.617  10.126  22.611  1.00  0.00     0.046 C 
ATOM      8  C   UNL     1      12.798  10.889  20.340  1.00  0.00     0.040 A 
ATOM      9  N   UNL     1      12.165   9.289  18.623  1.00  0.00    -0.289 N 
ATOM     10  O   UNL     1      12.758   7.094  18.928  1.00  0.00    -0.268 OA
ATOM     11  C   UNL     1      12.830  12.246  20.738  1.00  0.00     0.127 A 
ATOM     12  C   UNL     1      12.309  10.593  19.040  1.00  0.00     0.148 A 
ATOM     13  N   UNL     1      12.438  13.215  19.886  1.00  0.00    -0.221 NA
ATOM     14  N   UNL     1      11.898  11.629  18.253  1.00  0.00    -0.194 NA
BRANCH   4  15
ATOM     15  C   UNL     1      13.876   7.401  21.411  1.00  0.00     0.165 C 
ATOM     16  C   UNL     1      15.354   7.167  21.391  1.00  0.00     0.094 C 
ATOM     17  O   UNL     1      13.138   6.637  22.089  1.00  0.00    -0.294 OA
ENDBRANCH   4  15
BRANCH   9  18
ATOM     18  C   UNL     1      11.519   8.936  17.321  1.00  0.00     0.092 C 
ATOM     19  C   UNL     1      10.910  10.134  16.568  1.00  0.00     0.025 C 
ATOM     20  C   UNL     1      12.493   8.252  16.367  1.00  0.00     0.025 C 
ATOM     21  C   UNL     1      11.676  10.256  15.247  1.00  0.00     0.002 C 
ATOM     22  C   UNL     1      12.828   9.257  15.280  1.00  0.00     0.002 C 
ENDBRANCH   9  18
ENDBRANCH   1   3
BRANCH   1  23
ATOM     23  C   UNL     1      11.545  13.810  16.389  1.00  0.00     0.132 A 
ATOM     24  N   UNL     1      12.763  13.809  15.786  1.00  0.00    -0.237 NA
ATOM     25  C   UNL     1      10.383  13.696  15.620  1.00  0.00     0.049 A 
ATOM     26  C   UNL     1      12.887  13.772  14.428  1.00  0.00     0.139 A 
ATOM     27  C   UNL     1      10.480  13.616  14.234  1.00  0.00     0.031 A 
ATOM     28  C   UNL     1      11.745  13.687  13.604  1.00  0.00     0.055 A 
BRANCH  28  29
ATOM     29  N   UNL     1      11.864  13.712  12.160  1.00  0.00    -0.368 N 
ATOM     30  C   UNL     1      13.178  13.436  11.534  1.00  0.00     0.132 C 
ATOM     31  C   UNL     1      10.821  14.355  11.343  1.00  0.00     0.132 C 
ATOM     32  C   UNL     1      13.341  14.302  10.291  1.00  0.00     0.102 C 
ATOM     33  C   UNL     1      10.928  13.998   9.844  1.00  0.00     0.102 C 
ATOM     34  N   UNL     1      12.310  13.974   9.297  1.00  0.00    -0.313 NA
ATOM     35  H   UNL     1      12.507  12.998   8.962  1.00  0.00     0.122 HD
ENDBRANCH  28  29
ENDBRANCH   1  23
TORSDOF 5
ENDMDL
MODEL 9
REMARK VINA RESULT:    -8.696      1.798      3.966
REMARK INTER + INTRA:         -10.778
REMARK INTER:                 -11.293
REMARK INTRA:                   0.515
REMARK UNBOUND:                 0.460
REMARK SMILES CC(=O)c1c(C)c2cnc(Nc3ccc(N4CCNCC4)cn3)nc2n(C2CCCC2)c1=O
REMARK SMILES IDX 11 1 10 3 4 4 5 5 32 6 6 7 7 8 26 9 33 10 8 11 25 12 9 13
REMARK SMILES IDX 24 14 2 15 1 16 3 17 27 18 28 19 31 20 29 21 30 22 12 23
REMARK SMILES IDX 23 24 13 25 22 26 14 27 15 28 16 29 17 30 21 31 18 32 20 33
REMARK SMILES IDX 19 34
REMARK H PARENT 11 2 19 35
REMARK Flexibility Score: inf
ROOT
ATOM      1  N   UNL     1      13.926  15.081  13.683  1.00  0.00    -0.309 N 
ATOM      2  H   UNL     1      14.903  15.065  14.049  1.00  0.00     0.171 HD
ENDROOT
BRANCH   1   3
ATOM      3  C   UNL     1      12.887  14.566  14.519  1.00  0.00     0.230 A 
ATOM      4  C   UNL     1      10.038  11.697  17.453  1.00  0.00     0.086 A 
ATOM      5  C   UNL     1       9.770  12.892  16.740  1.00  0.00    -0.022 A 
ATOM      6  C   UNL     1      11.259  11.024  17.248  1.00  0.00     0.263 A 
ATOM      7  C   UNL     1       8.408  13.546  16.784  1.00  0.00     0.046 C 
ATOM      8  C   UNL     1      10.809  13.466  15.981  1.00  0.00     0.040 A 
ATOM      9  N   UNL     1      12.208  11.518  16.377  1.00  0.00    -0.289 N 
ATOM     10  O   UNL     1      11.470   9.952  17.880  1.00  0.00    -0.268 OA
ATOM     11  C   UNL     1      10.677  14.716  15.331  1.00  0.00     0.127 A 
ATOM     12  C   UNL     1      12.043  12.778  15.847  1.00  0.00     0.148 A 
ATOM     13  N   UNL     1      11.711  15.236  14.638  1.00  0.00    -0.221 NA
ATOM     14  N   UNL     1      13.027  13.357  15.098  1.00  0.00    -0.194 NA
BRANCH   4  15
ATOM     15  C   UNL     1       9.056  11.132  18.422  1.00  0.00     0.165 C 
ATOM     16  C   UNL     1       8.053  10.107  17.996  1.00  0.00     0.094 C 
ATOM     17  O   UNL     1       9.076  11.519  19.621  1.00  0.00    -0.294 OA
ENDBRANCH   4  15
BRANCH   9  18
ATOM     18  C   UNL     1      13.439  10.705  16.130  1.00  0.00     0.092 C 
ATOM     19  C   UNL     1      14.310  10.474  17.380  1.00  0.00     0.025 C 
ATOM     20  C   UNL     1      13.110   9.334  15.549  1.00  0.00     0.025 C 
ATOM     21  C   UNL     1      14.322   8.963  17.630  1.00  0.00     0.002 C 
ATOM     22  C   UNL     1      13.345   8.318  16.652  1.00  0.00     0.002 C 
ENDBRANCH   9  18
ENDBRANCH   1   3
BRANCH   1  23
ATOM     23  C   UNL     1      13.756  15.064  12.269  1.00  0.00     0.132 A 
ATOM     24  N   UNL     1      13.781  16.230  11.570  1.00  0.00    -0.237 NA
ATOM     25  C   UNL     1      13.542  13.854  11.604  1.00  0.00     0.049 A 
ATOM     26  C   UNL     1      13.529  16.264  10.229  1.00  0.00     0.139 A 
ATOM     27  C   UNL     1      13.322  13.853  10.229  1.00  0.00     0.031 A 
ATOM     28  C   UNL     1      13.277  15.073   9.515  1.00  0.00     0.055 A 
BRANCH  28  29
ATOM     29  N   UNL     1      12.945  15.107   8.105  1.00  0.00    -0.368 N 
ATOM     30  C   UNL     1      14.030  15.025   7.100  1.00  0.00     0.132 C 
ATOM     31  C   UNL     1      11.621  15.584   7.668  1.00  0.00     0.132 C 
ATOM     32  C   UNL     1      13.681  15.897   5.901  1.00  0.00     0.102 C 
ATOM     33  C   UNL     1      11.316  15.238   6.194  1.00  0.00     0.102 C 
ATOM     34  N   UNL     1      12.453  15.415   5.254  1.00  0.00    -0.313 NA
ATOM     35  H   UNL     1      12.675  14.477   4.837  1.00  0.00     0.122 HD
ENDBRANCH  28  29
ENDBRANCH   1  23
TORSDOF 5
ENDMDL
MODEL 10
REMARK VINA RESULT:    -8.680      4.694      8.998
REMARK INTER + INTRA:         -10.757
REMARK INTER:                 -10.472
REMARK INTRA:                  -0.285
REMARK UNBOUND:                 0.460
REMARK SMILES CC(=O)c1c(C)c2cnc(Nc3ccc(N4CCNCC4)cn3)nc2n(C2CCCC2)c1=O
REMARK SMILES IDX 11 1 10 3 4 4 5 5 32 6 6 7 7 8 26 9 33 10 8 11 25 12 9 13
REMARK SMILES IDX 24 14 2 15 1 16 3 17 27 18 28 19 31 20 29 21 30 22 12 23
REMARK SMILES IDX 23 24 13 25 22 26 14 27 15 28 16 29 17 30 21 31 18 32 20 33
REMARK SMILES IDX 19 34
REMARK H PARENT 11 2 19 35
REMARK Flexibility Score: inf
ROOT
ATOM      1  N   UNL     1      10.902  11.496  19.469  1.00  0.00    -0.309 N 
ATOM      2  H   UNL     1      10.588  10.532  19.717  1.00  0.00     0.171 HD
ENDROOT
BRANCH   1   3
ATOM      3  C   UNL     1      10.123  12.234  18.525  1.00  0.00     0.230 A 
ATOM      4  C   UNL     1       8.475  14.634  14.464  1.00  0.00     0.086 A 
ATOM      5  C   UNL     1       8.025  14.615  15.808  1.00  0.00    -0.022 A 
ATOM      6  C   UNL     1       9.696  14.013  14.132  1.00  0.00     0.263 A 
ATOM      7  C   UNL     1       6.824  15.421  16.247  1.00  0.00     0.046 C 
ATOM      8  C   UNL     1       8.725  13.821  16.738  1.00  0.00     0.040 A 
ATOM      9  N   UNL     1      10.454  13.371  15.090  1.00  0.00    -0.289 N 
ATOM     10  O   UNL     1      10.087  14.056  12.932  1.00  0.00    -0.268 OA
ATOM     11  C   UNL     1       8.287  13.644  18.071  1.00  0.00     0.127 A 
ATOM     12  C   UNL     1       9.923  13.169  16.344  1.00  0.00     0.148 A 
ATOM     13  N   UNL     1       8.979  12.852  18.916  1.00  0.00    -0.221 NA
ATOM     14  N   UNL     1      10.583  12.415  17.270  1.00  0.00    -0.194 NA
BRANCH   4  15
ATOM     15  C   UNL     1       7.684  15.294  13.388  1.00  0.00     0.165 C 
ATOM     16  C   UNL     1       7.854  16.749  13.086  1.00  0.00     0.094 C 
ATOM     17  O   UNL     1       6.863  14.614  12.715  1.00  0.00    -0.294 OA
ENDBRANCH   4  15
BRANCH   9  18
ATOM     18  C   UNL     1      11.786  12.820  14.690  1.00  0.00     0.092 C 
ATOM     19  C   UNL     1      12.861  12.895  15.791  1.00  0.00     0.025 C 
ATOM     20  C   UNL     1      11.692  11.363  14.251  1.00  0.00     0.025 C 
ATOM     21  C   UNL     1      13.250  11.451  16.122  1.00  0.00     0.002 C 
ATOM     22  C   UNL     1      12.310  10.526  15.355  1.00  0.00     0.002 C 
ENDBRANCH   9  18
ENDBRANCH   1   3
BRANCH   1  23
ATOM     23  C   UNL     1      12.288  11.791  19.612  1.00  0.00     0.132 A 
ATOM     24  N   UNL     1      12.703  13.084  19.669  1.00  0.00    -0.237 NA
ATOM     25  C   UNL     1      13.222  10.752  19.670  1.00  0.00     0.049 A 
ATOM     26  C   UNL     1      14.029  13.407  19.711  1.00  0.00     0.139 A 
ATOM     27  C   UNL     1      14.579  11.050  19.753  1.00  0.00     0.031 A 
ATOM     28  C   UNL     1      15.014  12.397  19.740  1.00  0.00     0.055 A 
BRANCH  28  29
ATOM     29  N   UNL     1      16.424  12.731  19.719  1.00  0.00    -0.368 N 
ATOM     30  C   UNL     1      17.012  13.474  20.857  1.00  0.00     0.132 C 
ATOM     31  C   UNL     1      17.178  12.675  18.455  1.00  0.00     0.132 C 
ATOM     32  C   UNL     1      18.080  14.431  20.343  1.00  0.00     0.102 C 
ATOM     33  C   UNL     1      18.707  12.725  18.666  1.00  0.00     0.102 C 
ATOM     34  N   UNL     1      19.172  13.686  19.700  1.00  0.00    -0.313 NA
ATOM     35  H   UNL     1      19.655  13.140  20.455  1.00  0.00     0.122 HD
ENDBRANCH  28  29
ENDBRANCH   1  23
TORSDOF 5
ENDMDL
MODEL 11
REMARK VINA RESULT:    -8.662      3.963      9.062
REMARK INTER + INTRA:         -10.733
REMARK INTER:                 -10.562
REMARK INTRA:                  -0.172
REMARK UNBOUND:                 0.460
REMARK SMILES CC(=O)c1c(C)c2cnc(Nc3ccc(N4CCNCC4)cn3)nc2n(C2CCCC2)c1=O
REMARK SMILES IDX 11 1 10 3 4 4 5 5 32 6 6 7 7 8 26 9 33 10 8 11 25 12 9 13
REMARK SMILES IDX 24 14 2 15 1 16 3 17 27 18 28 19 31 20 29 21 30 22 12 23
REMARK SMILES IDX 23 24 13 25 22 26 14 27 15 28 16 29 17 30 21 31 18 32 20 33
REMARK SMILES IDX 19 34
REMARK H PARENT 11 2 19 35
REMARK Flexibility Score: inf
ROOT
ATOM      1  N   UNL     1      12.084  10.390  14.596  1.00  0.00    -0.309 N 
ATOM      2  H   UNL     1      12.543  10.001  13.742  1.00  0.00     0.171 HD
ENDROOT
BRANCH   1   3
ATOM      3  C   UNL     1      11.398  11.638  14.479  1.00  0.00     0.230 A 
ATOM      4  C   UNL     1       8.425  15.589  15.194  1.00  0.00     0.086 A 
ATOM      5  C   UNL     1       9.153  15.137  14.065  1.00  0.00    -0.022 A 
ATOM      6  C   UNL     1       8.332  14.768  16.336  1.00  0.00     0.263 A 
ATOM      7  C   UNL     1       9.126  15.893  12.758  1.00  0.00     0.046 C 
ATOM      8  C   UNL     1       9.910  13.955  14.187  1.00  0.00     0.040 A 
ATOM      9  N   UNL     1       8.952  13.536  16.381  1.00  0.00    -0.289 N 
ATOM     10  O   UNL     1       7.664  15.183  17.324  1.00  0.00    -0.268 OA
ATOM     11  C   UNL     1      10.760  13.486  13.158  1.00  0.00     0.127 A 
ATOM     12  C   UNL     1       9.828  13.187  15.378  1.00  0.00     0.148 A 
ATOM     13  N   UNL     1      11.486  12.362  13.334  1.00  0.00    -0.221 NA
ATOM     14  N   UNL     1      10.567  12.043  15.461  1.00  0.00    -0.194 NA
BRANCH   4  15
ATOM     15  C   UNL     1       7.755  16.920  15.206  1.00  0.00     0.165 C 
ATOM     16  C   UNL     1       8.485  18.149  15.648  1.00  0.00     0.094 C 
ATOM     17  O   UNL     1       6.555  17.014  14.830  1.00  0.00    -0.294 OA
ENDBRANCH   4  15
BRANCH   9  18
ATOM     18  C   UNL     1       8.731  12.672  17.583  1.00  0.00     0.092 C 
ATOM     19  C   UNL     1       9.002  11.174  17.347  1.00  0.00     0.025 C 
ATOM     20  C   UNL     1       9.593  13.107  18.763  1.00  0.00     0.025 C 
ATOM     21  C   UNL     1      10.164  10.790  18.268  1.00  0.00     0.002 C 
ATOM     22  C   UNL     1      10.688  12.066  18.919  1.00  0.00     0.002 C 
ENDBRANCH   9  18
ENDBRANCH   1   3
BRANCH   1  23
ATOM     23  C   UNL     1      12.613  10.000  15.859  1.00  0.00     0.132 A 
ATOM     24  N   UNL     1      12.236   8.818  16.416  1.00  0.00    -0.237 NA
ATOM     25  C   UNL     1      13.500  10.841  16.536  1.00  0.00     0.049 A 
ATOM     26  C   UNL     1      12.647   8.454  17.665  1.00  0.00     0.139 A 
ATOM     27  C   UNL     1      13.969  10.477  17.795  1.00  0.00     0.031 A 
ATOM     28  C   UNL     1      13.520   9.281  18.404  1.00  0.00     0.055 A 
BRANCH  28  29
ATOM     29  N   UNL     1      13.909   8.933  19.755  1.00  0.00    -0.368 N 
ATOM     30  C   UNL     1      14.292   7.536  20.065  1.00  0.00     0.132 C 
ATOM     31  C   UNL     1      13.582   9.834  20.874  1.00  0.00     0.132 C 
ATOM     32  C   UNL     1      13.818   7.178  21.468  1.00  0.00     0.102 C 
ATOM     33  C   UNL     1      14.353   9.488  22.167  1.00  0.00     0.102 C 
ATOM     34  N   UNL     1      14.469   8.037  22.466  1.00  0.00    -0.313 NA
ATOM     35  H   UNL     1      15.490   7.789  22.465  1.00  0.00     0.122 HD
ENDBRANCH  28  29
ENDBRANCH   1  23
TORSDOF 5
ENDMDL
MODEL 12
REMARK VINA RESULT:    -8.626      2.657      3.945
REMARK INTER + INTRA:         -10.688
REMARK INTER:                 -11.121
REMARK INTRA:                   0.433
REMARK UNBOUND:                 0.460
REMARK SMILES CC(=O)c1c(C)c2cnc(Nc3ccc(N4CCNCC4)cn3)nc2n(C2CCCC2)c1=O
REMARK SMILES IDX 11 1 10 3 4 4 5 5 32 6 6 7 7 8 26 9 33 10 8 11 25 12 9 13
REMARK SMILES IDX 24 14 2 15 1 16 3 17 27 18 28 19 31 20 29 21 30 22 12 23
REMARK SMILES IDX 23 24 13 25 22 26 14 27 15 28 16 29 17 30 21 31 18 32 20 33
REMARK SMILES IDX 19 34
REMARK H PARENT 11 2 19 35
REMARK Flexibility Score: inf
ROOT
ATOM      1  N   UNL     1      10.994  12.483  12.286  1.00  0.00    -0.309 N 
ATOM      2  H   UNL     1      10.107  11.956  12.445  1.00  0.00     0.171 HD
ENDROOT
BRANCH   1   3
ATOM      3  C   UNL     1      11.830  12.746  13.415  1.00  0.00     0.230 A 
ATOM      4  C   UNL     1      14.521  12.382  17.608  1.00  0.00     0.086 A 
ATOM      5  C   UNL     1      14.036  13.498  16.882  1.00  0.00    -0.022 A 
ATOM      6  C   UNL     1      14.100  11.084  17.254  1.00  0.00     0.263 A 
ATOM      7  C   UNL     1      14.310  14.912  17.338  1.00  0.00     0.046 C 
ATOM      8  C   UNL     1      13.286  13.261  15.714  1.00  0.00     0.040 A 
ATOM      9  N   UNL     1      13.234  10.879  16.198  1.00  0.00    -0.289 N 
ATOM     10  O   UNL     1      14.531  10.106  17.924  1.00  0.00    -0.268 OA
ATOM     11  C   UNL     1      12.858  14.304  14.859  1.00  0.00     0.127 A 
ATOM     12  C   UNL     1      12.929  11.932  15.365  1.00  0.00     0.148 A 
ATOM     13  N   UNL     1      12.164  14.023  13.736  1.00  0.00    -0.221 NA
ATOM     14  N   UNL     1      12.194  11.737  14.232  1.00  0.00    -0.194 NA
BRANCH   4  15
ATOM     15  C   UNL     1      15.475  12.546  18.742  1.00  0.00     0.165 C 
ATOM     16  C   UNL     1      16.953  12.568  18.511  1.00  0.00     0.094 C 
ATOM     17  O   UNL     1      15.030  12.676  19.914  1.00  0.00    -0.294 OA
ENDBRANCH   4  15
BRANCH   9  18
ATOM     18  C   UNL     1      12.748   9.489  15.937  1.00  0.00     0.092 C 
ATOM     19  C   UNL     1      13.681   8.380  16.460  1.00  0.00     0.025 C 
ATOM     20  C   UNL     1      11.370   9.243  16.545  1.00  0.00     0.025 C 
ATOM     21  C   UNL     1      12.891   7.607  17.520  1.00  0.00     0.002 C 
ATOM     22  C   UNL     1      11.572   8.340  17.748  1.00  0.00     0.002 C 
ENDBRANCH   9  18
ENDBRANCH   1   3
BRANCH   1  23
ATOM     23  C   UNL     1      11.045  13.356  11.162  1.00  0.00     0.132 A 
ATOM     24  N   UNL     1       9.921  14.003  10.755  1.00  0.00    -0.237 NA
ATOM     25  C   UNL     1      12.244  13.530  10.464  1.00  0.00     0.049 A 
ATOM     26  C   UNL     1       9.908  14.773   9.629  1.00  0.00     0.139 A 
ATOM     27  C   UNL     1      12.271  14.342   9.334  1.00  0.00     0.031 A 
ATOM     28  C   UNL     1      11.084  14.958   8.871  1.00  0.00     0.055 A 
BRANCH  28  29
ATOM     29  N   UNL     1      11.064  15.720   7.639  1.00  0.00    -0.368 N 
ATOM     30  C   UNL     1      10.163  16.890   7.522  1.00  0.00     0.132 C 
ATOM     31  C   UNL     1      11.631  15.148   6.406  1.00  0.00     0.132 C 
ATOM     32  C   UNL     1       9.631  16.983   6.098  1.00  0.00     0.102 C 
ATOM     33  C   UNL     1      11.835  16.201   5.294  1.00  0.00     0.102 C 
ATOM     34  N   UNL     1      10.734  17.188   5.149  1.00  0.00    -0.313 NA
ATOM     35  H   UNL     1      11.130  18.142   5.341  1.00  0.00     0.122 HD
ENDBRANCH  28  29
ENDBRANCH   1  23
TORSDOF 5
ENDMDL
MODEL 13
REMARK VINA RESULT:    -8.539      4.439      9.116
REMARK INTER + INTRA:         -10.575
REMARK INTER:                 -10.742
REMARK INTRA:                   0.167
REMARK UNBOUND:                 0.460
REMARK SMILES CC(=O)c1c(C)c2cnc(Nc3ccc(N4CCNCC4)cn3)nc2n(C2CCCC2)c1=O
REMARK SMILES IDX 11 1 10 3 4 4 5 5 32 6 6 7 7 8 26 9 33 10 8 11 25 12 9 13
REMARK SMILES IDX 24 14 2 15 1 16 3 17 27 18 28 19 31 20 29 21 30 22 12 23
REMARK SMILES IDX 23 24 13 25 22 26 14 27 15 28 16 29 17 30 21 31 18 32 20 33
REMARK SMILES IDX 19 34
REMARK H PARENT 11 2 19 35
REMARK Flexibility Score: inf
ROOT
ATOM      1  N   UNL     1      11.399  10.810  17.379  1.00  0.00    -0.309 N 
ATOM      2  H   UNL     1      11.242   9.792  17.208  1.00  0.00     0.171 HD
ENDROOT
BRANCH   1   3
ATOM      3  C   UNL     1      10.586  11.744  16.664  1.00  0.00     0.230 A 
ATOM      4  C   UNL     1       8.711  14.888  13.265  1.00  0.00     0.086 A 
ATOM      5  C   UNL     1       8.411  14.676  14.634  1.00  0.00    -0.022 A 
ATOM      6  C   UNL     1       9.830  14.252  12.692  1.00  0.00     0.263 A 
ATOM      7  C   UNL     1       7.339  15.475  15.338  1.00  0.00     0.046 C 
ATOM      8  C   UNL     1       9.140  13.695  15.334  1.00  0.00     0.040 A 
ATOM      9  N   UNL     1      10.632  13.411  13.436  1.00  0.00    -0.289 N 
ATOM     10  O   UNL     1      10.088  14.468  11.475  1.00  0.00    -0.268 OA
ATOM     11  C   UNL     1       8.838  13.328  16.667  1.00  0.00     0.127 A 
ATOM     12  C   UNL     1      10.227  13.040  14.699  1.00  0.00     0.148 A 
ATOM     13  N   UNL     1       9.549  12.363  17.285  1.00  0.00    -0.221 NA
ATOM     14  N   UNL     1      10.919  12.100  15.407  1.00  0.00    -0.194 NA
BRANCH   4  15
ATOM     15  C   UNL     1       7.864  15.769  12.411  1.00  0.00     0.165 C 
ATOM     16  C   UNL     1       8.216  17.207  12.198  1.00  0.00     0.094 C 
ATOM     17  O   UNL     1       6.840  15.292  11.852  1.00  0.00    -0.294 OA
ENDBRANCH   4  15
BRANCH   9  18
ATOM     18  C   UNL     1      11.860  12.848  12.795  1.00  0.00     0.092 C 
ATOM     19  C   UNL     1      11.823  12.832  11.255  1.00  0.00     0.025 C 
ATOM     20  C   UNL     1      13.118  13.604  13.209  1.00  0.00     0.025 C 
ATOM     21  C   UNL     1      12.958  13.745  10.781  1.00  0.00     0.002 C 
ATOM     22  C   UNL     1      13.556  14.425  12.009  1.00  0.00     0.002 C 
ENDBRANCH   9  18
ENDBRANCH   1   3
BRANCH   1  23
ATOM     23  C   UNL     1      12.693  11.207  17.822  1.00  0.00     0.132 A 
ATOM     24  N   UNL     1      12.816  12.090  18.848  1.00  0.00    -0.237 NA
ATOM     25  C   UNL     1      13.834  10.708  17.187  1.00  0.00     0.049 A 
ATOM     26  C   UNL     1      14.034  12.566  19.238  1.00  0.00     0.139 A 
ATOM     27  C   UNL     1      15.093  11.145  17.590  1.00  0.00     0.031 A 
ATOM     28  C   UNL     1      15.216  12.117  18.611  1.00  0.00     0.055 A 
BRANCH  28  29
ATOM     29  N   UNL     1      16.507  12.665  18.975  1.00  0.00    -0.368 N 
ATOM     30  C   UNL     1      16.692  13.258  20.320  1.00  0.00     0.132 C 
ATOM     31  C   UNL     1      17.501  12.972  17.932  1.00  0.00     0.132 C 
ATOM     32  C   UNL     1      17.634  14.451  20.225  1.00  0.00     0.102 C 
ATOM     33  C   UNL     1      18.914  13.218  18.505  1.00  0.00     0.102 C 
ATOM     34  N   UNL     1      18.959  14.024  19.753  1.00  0.00    -0.313 NA
ATOM     35  H   UNL     1      19.375  13.424  20.508  1.00  0.00     0.122 HD
ENDBRANCH  28  29
ENDBRANCH   1  23
TORSDOF 5
ENDMDL
MODEL 14
REMARK VINA RESULT:    -8.505      7.112      9.665
REMARK INTER + INTRA:         -10.531
REMARK INTER:                 -10.844
REMARK INTRA:                   0.314
REMARK UNBOUND:                 0.460
REMARK SMILES CC(=O)c1c(C)c2cnc(Nc3ccc(N4CCNCC4)cn3)nc2n(C2CCCC2)c1=O
REMARK SMILES IDX 11 1 10 3 4 4 5 5 32 6 6 7 7 8 26 9 33 10 8 11 25 12 9 13
REMARK SMILES IDX 24 14 2 15 1 16 3 17 27 18 28 19 31 20 29 21 30 22 12 23
REMARK SMILES IDX 23 24 13 25 22 26 14 27 15 28 16 29 17 30 21 31 18 32 20 33
REMARK SMILES IDX 19 34
REMARK H PARENT 11 2 19 35
REMARK Flexibility Score: inf
ROOT
ATOM      1  N   UNL     1      17.874  14.033  17.739  1.00  0.00    -0.309 N 
ATOM      2  H   UNL     1      17.606  14.980  17.393  1.00  0.00     0.171 HD
ENDROOT
BRANCH   1   3
ATOM      3  C   UNL     1      16.978  13.366  18.631  1.00  0.00     0.230 A 
ATOM      4  C   UNL     1      13.445  10.450  20.624  1.00  0.00     0.086 A 
ATOM      5  C   UNL     1      14.143  11.578  21.124  1.00  0.00    -0.022 A 
ATOM      6  C   UNL     1      13.588  10.087  19.270  1.00  0.00     0.263 A 
ATOM      7  C   UNL     1      13.879  12.114  22.511  1.00  0.00     0.046 C 
ATOM      8  C   UNL     1      15.098  12.196  20.293  1.00  0.00     0.040 A 
ATOM      9  N   UNL     1      14.411  10.802  18.423  1.00  0.00    -0.289 N 
ATOM     10  O   UNL     1      12.945   9.089  18.841  1.00  0.00    -0.268 OA
ATOM     11  C   UNL     1      15.927  13.251  20.740  1.00  0.00     0.127 A 
ATOM     12  C   UNL     1      15.247  11.762  18.950  1.00  0.00     0.148 A 
ATOM     13  N   UNL     1      16.846  13.792  19.913  1.00  0.00    -0.221 NA
ATOM     14  N   UNL     1      16.175  12.387  18.168  1.00  0.00    -0.194 NA
BRANCH   4  15
ATOM     15  C   UNL     1      12.561   9.630  21.501  1.00  0.00     0.165 C 
ATOM     16  C   UNL     1      13.122   8.549  22.369  1.00  0.00     0.094 C 
ATOM     17  O   UNL     1      11.321   9.856  21.516  1.00  0.00    -0.294 OA
ENDBRANCH   4  15
BRANCH   9  18
ATOM     18  C   UNL     1      14.442  10.426  16.976  1.00  0.00     0.092 C 
ATOM     19  C   UNL     1      14.155   8.938  16.699  1.00  0.00     0.025 C 
ATOM     20  C   UNL     1      13.446  11.238  16.154  1.00  0.00     0.025 C 
ATOM     21  C   UNL     1      12.869   8.888  15.868  1.00  0.00     0.002 C 
ATOM     22  C   UNL     1      12.307  10.304  15.790  1.00  0.00     0.002 C 
ENDBRANCH   9  18
ENDBRANCH   1   3
BRANCH   1  23
ATOM     23  C   UNL     1      19.263  13.721  17.784  1.00  0.00     0.132 A 
ATOM     24  N   UNL     1      20.170  14.591  17.265  1.00  0.00    -0.237 NA
ATOM     25  C   UNL     1      19.691  12.512  18.339  1.00  0.00     0.049 A 
ATOM     26  C   UNL     1      21.498  14.285  17.204  1.00  0.00     0.139 A 
ATOM     27  C   UNL     1      21.046  12.191  18.329  1.00  0.00     0.031 A 
ATOM     28  C   UNL     1      21.980  13.065  17.724  1.00  0.00     0.055 A 
BRANCH  28  29
ATOM     29  N   UNL     1      23.378  12.705  17.606  1.00  0.00    -0.368 N 
ATOM     30  C   UNL     1      24.389  13.769  17.406  1.00  0.00     0.132 C 
ATOM     31  C   UNL     1      23.761  11.312  17.314  1.00  0.00     0.132 C 
ATOM     32  C   UNL     1      25.492  13.258  16.489  1.00  0.00     0.102 C 
ATOM     33  C   UNL     1      25.262  11.040  17.558  1.00  0.00     0.102 C 
ATOM     34  N   UNL     1      26.182  12.114  17.102  1.00  0.00    -0.313 NA
ATOM     35  H   UNL     1      26.693  12.480  17.944  1.00  0.00     0.122 HD
ENDBRANCH  28  29
ENDBRANCH   1  23
TORSDOF 5
ENDMDL
MODEL 15
REMARK VINA RESULT:    -8.489      4.164      9.558
REMARK INTER + INTRA:         -10.510
REMARK INTER:                 -10.660
REMARK INTRA:                   0.150
REMARK UNBOUND:                 0.460
REMARK SMILES CC(=O)c1c(C)c2cnc(Nc3ccc(N4CCNCC4)cn3)nc2n(C2CCCC2)c1=O
REMARK SMILES IDX 11 1 10 3 4 4 5 5 32 6 6 7 7 8 26 9 33 10 8 11 25 12 9 13
REMARK SMILES IDX 24 14 2 15 1 16 3 17 27 18 28 19 31 20 29 21 30 22 12 23
REMARK SMILES IDX 23 24 13 25 22 26 14 27 15 28 16 29 17 30 21 31 18 32 20 33
REMARK SMILES IDX 19 34
REMARK H PARENT 11 2 19 35
REMARK Flexibility Score: inf
ROOT
ATOM      1  N   UNL     1       8.480  13.915  19.073  1.00  0.00    -0.309 N 
ATOM      2  H   UNL     1       7.849  14.122  19.878  1.00  0.00     0.171 HD
ENDROOT
BRANCH   1   3
ATOM      3  C   UNL     1       8.124  14.436  17.790  1.00  0.00     0.230 A 
ATOM      4  C   UNL     1       7.991  15.629  12.941  1.00  0.00     0.086 A 
ATOM      5  C   UNL     1       7.305  16.146  14.069  1.00  0.00    -0.022 A 
ATOM      6  C   UNL     1       9.038  14.705  13.128  1.00  0.00     0.263 A 
ATOM      7  C   UNL     1       6.306  17.272  13.933  1.00  0.00     0.046 C 
ATOM      8  C   UNL     1       7.574  15.584  15.331  1.00  0.00     0.040 A 
ATOM      9  N   UNL     1       9.398  14.281  14.391  1.00  0.00    -0.289 N 
ATOM     10  O   UNL     1       9.647  14.270  12.111  1.00  0.00    -0.268 OA
ATOM     11  C   UNL     1       6.859  15.950  16.496  1.00  0.00     0.127 A 
ATOM     12  C   UNL     1       8.603  14.615  15.464  1.00  0.00     0.148 A 
ATOM     13  N   UNL     1       7.137  15.362  17.679  1.00  0.00    -0.221 NA
ATOM     14  N   UNL     1       8.846  14.097  16.703  1.00  0.00    -0.194 NA
BRANCH   4  15
ATOM     15  C   UNL     1       7.627  16.038  11.554  1.00  0.00     0.165 C 
ATOM     16  C   UNL     1       8.379  17.120  10.846  1.00  0.00     0.094 C 
ATOM     17  O   UNL     1       6.676  15.457  10.966  1.00  0.00    -0.294 OA
ENDBRANCH   4  15
BRANCH   9  18
ATOM     18  C   UNL     1      10.582  13.377  14.527  1.00  0.00     0.092 C 
ATOM     19  C   UNL     1      10.871  12.516  13.283  1.00  0.00     0.025 C 
ATOM     20  C   UNL     1      11.857  14.151  14.847  1.00  0.00     0.025 C 
ATOM     21  C   UNL     1      12.251  12.939  12.770  1.00  0.00     0.002 C 
ATOM     22  C   UNL     1      12.707  14.142  13.590  1.00  0.00     0.002 C 
ENDBRANCH   9  18
ENDBRANCH   1   3
BRANCH   1  23
ATOM     23  C   UNL     1       9.277  12.737  19.151  1.00  0.00     0.132 A 
ATOM     24  N   UNL     1      10.614  12.838  19.373  1.00  0.00    -0.237 NA
ATOM     25  C   UNL     1       8.689  11.481  18.977  1.00  0.00     0.049 A 
ATOM     26  C   UNL     1      11.424  11.740  19.361  1.00  0.00     0.139 A 
ATOM     27  C   UNL     1       9.484  10.339  19.000  1.00  0.00     0.031 A 
ATOM     28  C   UNL     1      10.886  10.451  19.160  1.00  0.00     0.055 A 
BRANCH  28  29
ATOM     29  N   UNL     1      11.746   9.288  19.081  1.00  0.00    -0.368 N 
ATOM     30  C   UNL     1      12.813   9.103  20.091  1.00  0.00     0.132 C 
ATOM     31  C   UNL     1      11.818   8.505  17.835  1.00  0.00     0.132 C 
ATOM     32  C   UNL     1      14.034   8.473  19.433  1.00  0.00     0.102 C 
ATOM     33  C   UNL     1      12.501   7.133  18.028  1.00  0.00     0.102 C 
ATOM     34  N   UNL     1      13.703   7.142  18.903  1.00  0.00    -0.313 NA
ATOM     35  H   UNL     1      13.505   6.524  19.729  1.00  0.00     0.122 HD
ENDBRANCH  28  29
ENDBRANCH   1  23
TORSDOF 5
ENDMDL
