MODEL 1
REMARK VINA RESULT:    -9.323      0.000      0.000
REMARK INTER + INTRA:         -12.009
REMARK INTER:                 -11.776
REMARK INTRA:                  -0.233
REMARK UNBOUND:                -0.233
REMARK SMILES CN(C)[C@@H]1C(O)=C(C(N)=O)C(=O)[C@@]2(O)C(O)=C3C(=O)c4c(O)ccc(Cl)c4[C@@](C)(O)[C@H]3C[C@@H]12
REMARK SMILES IDX 33 1 32 2 31 3 17 4 15 5 13 6 11 7 12 8 7 9 5 10 4 11 18 12
REMARK SMILES IDX 19 13 20 14 21 15 23 16 24 17 25 18 26 19 27 20 28 21 29 22
REMARK SMILES IDX 14 23 2 25 1 26 3 27 16 28 6 30 30 32 8 34 9 35 10 36 22 39
REMARK H PARENT 14 24 16 29 6 31 30 33 9 37 9 38 22 40
REMARK Flexibility Score: inf
ROOT
ATOM      1  C   UNL     1      14.234  10.422  18.369  1.00  0.00     0.062 C 
ATOM      2  C   UNL     1      13.785  11.402  17.230  1.00  0.00     0.021 C 
ATOM      3  C   UNL     1      12.609  10.882  16.360  1.00  0.00     0.063 C 
ATOM      4  C   UNL     1      11.597  10.168  17.243  1.00  0.00     0.048 C 
ATOM      5  C   UNL     1      12.051   9.249  18.135  1.00  0.00     0.140 C 
ATOM      6  C   UNL     1      13.551   9.028  18.239  1.00  0.00     0.190 C 
ATOM      7  C   UNL     1      13.887   8.163  19.431  1.00  0.00     0.211 C 
ATOM      8  O   UNL     1      13.793   6.910  19.311  1.00  0.00    -0.290 OA
ATOM      9  C   UNL     1      14.215   8.751  20.750  1.00  0.00     0.125 C 
ATOM     10  C   UNL     1      14.207  10.088  20.931  1.00  0.00     0.126 C 
ATOM     11  C   UNL     1      13.989  11.067  19.769  1.00  0.00     0.130 C 
ATOM     12  C   UNL     1      10.215  10.668  17.243  1.00  0.00     0.197 C 
ATOM     13  O   UNL     1       9.232   9.890  17.376  1.00  0.00    -0.289 OA
ATOM     14  C   UNL     1      10.002  12.107  17.009  1.00  0.00     0.072 A 
ATOM     15  C   UNL     1       8.930  12.778  17.629  1.00  0.00     0.127 A 
ATOM     16  C   UNL     1       8.727  14.135  17.384  1.00  0.00     0.048 A 
ATOM     17  C   UNL     1       9.561  14.824  16.510  1.00  0.00     0.025 A 
ATOM     18  C   UNL     1      10.626  14.176  15.877  1.00  0.00     0.048 A 
ATOM     19  Cl  UNL     1      11.506  15.131  14.686  1.00  0.00    -0.084 Cl
ATOM     20  C   UNL     1      10.900  12.805  16.160  1.00  0.00     0.017 A 
ATOM     21  C   UNL     1      11.992  12.000  15.435  1.00  0.00     0.096 C 
ATOM     22  C   UNL     1      11.341  11.361  14.187  1.00  0.00     0.048 C 
ENDROOT
BRANCH   6  23
ATOM     23  O   UNL     1      13.988   8.372  17.069  1.00  0.00    -0.374 OA
ATOM     24  H   UNL     1      14.376   9.053  16.459  1.00  0.00     0.212 HD
ENDBRANCH   6  23
BRANCH  11  25
ATOM     25  N   UNL     1      14.830  12.296  19.848  1.00  0.00    -0.299 NA
ATOM     26  C   UNL     1      14.145  13.583  19.638  1.00  0.00     0.105 C 
ATOM     27  C   UNL     1      16.123  12.205  19.153  1.00  0.00     0.105 C 
ENDBRANCH  11  25
BRANCH   5  28
ATOM     28  O   UNL     1      11.211   8.568  19.025  1.00  0.00    -0.508 OA
ATOM     29  H   UNL     1      11.493   7.798  19.613  1.00  0.00     0.293 HD
ENDBRANCH   5  28
BRANCH  10  30
ATOM     30  O   UNL     1      14.331  10.572  22.234  1.00  0.00    -0.510 OA
ATOM     31  H   UNL     1      13.827  11.375  22.578  1.00  0.00     0.293 HD
ENDBRANCH  10  30
BRANCH  21  32
ATOM     32  O   UNL     1      13.028  12.856  15.011  1.00  0.00    -0.385 OA
ATOM     33  H   UNL     1      12.914  13.733  15.466  1.00  0.00     0.211 HD
ENDBRANCH  21  32
BRANCH   9  34
ATOM     34  C   UNL     1      14.482   7.834  21.889  1.00  0.00     0.255 C 
ATOM     35  N   UNL     1      15.523   6.859  21.809  1.00  0.00    -0.365 N 
ATOM     36  O   UNL     1      13.792   7.911  22.940  1.00  0.00    -0.269 OA
ATOM     37  H   UNL     1      15.691   6.203  22.603  1.00  0.00     0.159 HD
ATOM     38  H   UNL     1      16.180   6.844  20.998  1.00  0.00     0.159 HD
ENDBRANCH   9  34
BRANCH  15  39
ATOM     39  O   UNL     1       8.077  12.097  18.499  1.00  0.00    -0.507 OA
ATOM     40  H   UNL     1       7.415  11.408  18.164  1.00  0.00     0.293 HD
ENDBRANCH  15  39
TORSDOF 7
ENDMDL
MODEL 2
REMARK VINA RESULT:    -8.552      3.476      5.311
REMARK INTER + INTRA:         -11.034
REMARK INTER:                 -10.324
REMARK INTRA:                  -0.711
REMARK UNBOUND:                -0.233
REMARK SMILES CN(C)[C@@H]1C(O)=C(C(N)=O)C(=O)[C@@]2(O)C(O)=C3C(=O)c4c(O)ccc(Cl)c4[C@@](C)(O)[C@H]3C[C@@H]12
REMARK SMILES IDX 33 1 32 2 31 3 17 4 15 5 13 6 11 7 12 8 7 9 5 10 4 11 18 12
REMARK SMILES IDX 19 13 20 14 21 15 23 16 24 17 25 18 26 19 27 20 28 21 29 22
REMARK SMILES IDX 14 23 2 25 1 26 3 27 16 28 6 30 30 32 8 34 9 35 10 36 22 39
REMARK H PARENT 14 24 16 29 6 31 30 33 9 37 9 38 22 40
REMARK Flexibility Score: inf
ROOT
ATOM      1  C   UNL     1      10.975  12.186  18.321  1.00  0.00     0.062 C 
ATOM      2  C   UNL     1      10.275  13.537  18.703  1.00  0.00     0.021 C 
ATOM      3  C   UNL     1      10.510  14.691  17.693  1.00  0.00     0.063 C 
ATOM      4  C   UNL     1      10.470  14.146  16.274  1.00  0.00     0.048 C 
ATOM      5  C   UNL     1      11.190  13.030  15.989  1.00  0.00     0.140 C 
ATOM      6  C   UNL     1      11.951  12.358  17.119  1.00  0.00     0.190 C 
ATOM      7  C   UNL     1      12.491  11.016  16.682  1.00  0.00     0.211 C 
ATOM      8  O   UNL     1      13.577  10.984  16.042  1.00  0.00    -0.290 OA
ATOM      9  C   UNL     1      11.727   9.765  16.894  1.00  0.00     0.125 C 
ATOM     10  C   UNL     1      10.508   9.790  17.474  1.00  0.00     0.126 C 
ATOM     11  C   UNL     1       9.909  11.078  18.057  1.00  0.00     0.130 C 
ATOM     12  C   UNL     1       9.482  14.719  15.348  1.00  0.00     0.197 C 
ATOM     13  O   UNL     1       9.728  14.845  14.118  1.00  0.00    -0.289 OA
ATOM     14  C   UNL     1       8.215  15.215  15.911  1.00  0.00     0.072 A 
ATOM     15  C   UNL     1       7.023  15.129  15.166  1.00  0.00     0.127 A 
ATOM     16  C   UNL     1       5.833  15.620  15.702  1.00  0.00     0.048 A 
ATOM     17  C   UNL     1       5.822  16.219  16.957  1.00  0.00     0.025 A 
ATOM     18  C   UNL     1       6.995  16.323  17.710  1.00  0.00     0.048 A 
ATOM     19  Cl  UNL     1       6.864  17.234  19.213  1.00  0.00    -0.084 Cl
ATOM     20  C   UNL     1       8.213  15.769  17.218  1.00  0.00     0.017 A 
ATOM     21  C   UNL     1       9.561  15.926  17.944  1.00  0.00     0.096 C 
ATOM     22  C   UNL     1      10.220  17.222  17.418  1.00  0.00     0.048 C 
ENDROOT
BRANCH   6  23
ATOM     23  O   UNL     1      13.036  13.183  17.480  1.00  0.00    -0.374 OA
ATOM     24  H   UNL     1      13.818  12.930  16.922  1.00  0.00     0.212 HD
ENDBRANCH   6  23
BRANCH  11  25
ATOM     25  N   UNL     1       9.153  10.872  19.325  1.00  0.00    -0.299 NA
ATOM     26  C   UNL     1       9.819  10.079  20.373  1.00  0.00     0.105 C 
ATOM     27  C   UNL     1       7.733  10.530  19.150  1.00  0.00     0.105 C 
ENDBRANCH  11  25
BRANCH   5  28
ATOM     28  O   UNL     1      11.188  12.420  14.728  1.00  0.00    -0.508 OA
ATOM     29  H   UNL     1      10.671  12.748  13.927  1.00  0.00     0.293 HD
ENDBRANCH   5  28
BRANCH  10  30
ATOM     30  O   UNL     1       9.758   8.613  17.469  1.00  0.00    -0.510 OA
ATOM     31  H   UNL     1      10.133   7.716  17.732  1.00  0.00     0.293 HD
ENDBRANCH  10  30
BRANCH  21  32
ATOM     32  O   UNL     1       9.354  16.060  19.332  1.00  0.00    -0.385 OA
ATOM     33  H   UNL     1       8.422  15.781  19.537  1.00  0.00     0.211 HD
ENDBRANCH  21  32
BRANCH   9  34
ATOM     34  C   UNL     1      12.299   8.490  16.389  1.00  0.00     0.255 C 
ATOM     35  N   UNL     1      13.556   8.015  16.873  1.00  0.00    -0.365 N 
ATOM     36  O   UNL     1      11.677   7.812  15.528  1.00  0.00    -0.269 OA
ATOM     37  H   UNL     1      13.963   7.130  16.498  1.00  0.00     0.159 HD
ATOM     38  H   UNL     1      14.041   8.495  17.662  1.00  0.00     0.159 HD
ENDBRANCH   9  34
BRANCH  15  39
ATOM     39  O   UNL     1       7.021  14.542  13.899  1.00  0.00    -0.507 OA
ATOM     40  H   UNL     1       7.877  14.400  13.378  1.00  0.00     0.293 HD
ENDBRANCH  15  39
TORSDOF 7
ENDMDL
MODEL 3
REMARK VINA RESULT:    -8.551      2.303      3.082
REMARK INTER + INTRA:         -11.033
REMARK INTER:                 -10.503
REMARK INTRA:                  -0.530
REMARK UNBOUND:                -0.233
REMARK SMILES CN(C)[C@@H]1C(O)=C(C(N)=O)C(=O)[C@@]2(O)C(O)=C3C(=O)c4c(O)ccc(Cl)c4[C@@](C)(O)[C@H]3C[C@@H]12
REMARK SMILES IDX 33 1 32 2 31 3 17 4 15 5 13 6 11 7 12 8 7 9 5 10 4 11 18 12
REMARK SMILES IDX 19 13 20 14 21 15 23 16 24 17 25 18 26 19 27 20 28 21 29 22
REMARK SMILES IDX 14 23 2 25 1 26 3 27 16 28 6 30 30 32 8 34 9 35 10 36 22 39
REMARK H PARENT 14 24 16 29 6 31 30 33 9 37 9 38 22 40
REMARK Flexibility Score: inf
ROOT
ATOM      1  C   UNL     1      14.243  11.210  20.605  1.00  0.00     0.062 C 
ATOM      2  C   UNL     1      14.109  11.165  19.042  1.00  0.00     0.021 C 
ATOM      3  C   UNL     1      13.156  10.061  18.510  1.00  0.00     0.063 C 
ATOM      4  C   UNL     1      11.941   9.953  19.419  1.00  0.00     0.048 C 
ATOM      5  C   UNL     1      12.140   9.887  20.761  1.00  0.00     0.140 C 
ATOM      6  C   UNL     1      13.565   9.981  21.282  1.00  0.00     0.190 C 
ATOM      7  C   UNL     1      13.581  10.131  22.784  1.00  0.00     0.211 C 
ATOM      8  O   UNL     1      13.478   9.094  23.495  1.00  0.00    -0.290 OA
ATOM      9  C   UNL     1      13.607  11.463  23.431  1.00  0.00     0.125 C 
ATOM     10  C   UNL     1      13.600  12.592  22.691  1.00  0.00     0.126 C 
ATOM     11  C   UNL     1      13.695  12.561  21.159  1.00  0.00     0.130 C 
ATOM     12  C   UNL     1      10.615  10.152  18.816  1.00  0.00     0.197 C 
ATOM     13  O   UNL     1       9.604   9.518  19.224  1.00  0.00    -0.289 OA
ATOM     14  C   UNL     1      10.511  11.064  17.664  1.00  0.00     0.072 A 
ATOM     15  C   UNL     1       9.345  11.829  17.466  1.00  0.00     0.127 A 
ATOM     16  C   UNL     1       9.250  12.674  16.361  1.00  0.00     0.048 A 
ATOM     17  C   UNL     1      10.289  12.745  15.440  1.00  0.00     0.025 A 
ATOM     18  C   UNL     1      11.451  11.989  15.613  1.00  0.00     0.048 A 
ATOM     19  Cl  UNL     1      12.620  12.065  14.295  1.00  0.00    -0.084 Cl
ATOM     20  C   UNL     1      11.606  11.168  16.768  1.00  0.00     0.017 A 
ATOM     21  C   UNL     1      12.811  10.236  16.981  1.00  0.00     0.096 C 
ATOM     22  C   UNL     1      12.455   8.869  16.354  1.00  0.00     0.048 C 
ENDROOT
BRANCH   6  23
ATOM     23  O   UNL     1      14.245   8.793  20.941  1.00  0.00    -0.374 OA
ATOM     24  H   UNL     1      14.554   8.872  20.000  1.00  0.00     0.212 HD
ENDBRANCH   6  23
BRANCH  11  25
ATOM     25  N   UNL     1      14.533  13.652  20.584  1.00  0.00    -0.299 NA
ATOM     26  C   UNL     1      15.889  13.810  21.137  1.00  0.00     0.105 C 
ATOM     27  C   UNL     1      13.832  14.931  20.389  1.00  0.00     0.105 C 
ENDBRANCH  11  25
BRANCH   5  28
ATOM     28  O   UNL     1      11.092   9.830  21.688  1.00  0.00    -0.508 OA
ATOM     29  H   UNL     1      11.112  10.238  22.610  1.00  0.00     0.293 HD
ENDBRANCH   5  28
BRANCH  10  30
ATOM     30  O   UNL     1      13.427  13.808  23.353  1.00  0.00    -0.510 OA
ATOM     31  H   UNL     1      12.587  14.053  23.851  1.00  0.00     0.293 HD
ENDBRANCH  10  30
BRANCH  21  32
ATOM     32  O   UNL     1      13.946  10.748  16.320  1.00  0.00    -0.385 OA
ATOM     33  H   UNL     1      14.657  10.053  16.336  1.00  0.00     0.211 HD
ENDBRANCH  21  32
BRANCH   9  34
ATOM     34  C   UNL     1      13.567  11.532  24.916  1.00  0.00     0.255 C 
ATOM     35  N   UNL     1      12.780  10.606  25.665  1.00  0.00    -0.365 N 
ATOM     36  O   UNL     1      14.233  12.410  25.528  1.00  0.00    -0.269 OA
ATOM     37  H   UNL     1      12.739  10.673  26.706  1.00  0.00     0.159 HD
ATOM     38  H   UNL     1      12.307   9.803  25.196  1.00  0.00     0.159 HD
ENDBRANCH   9  34
BRANCH  15  39
ATOM     39  O   UNL     1       8.288  11.758  18.375  1.00  0.00    -0.507 OA
ATOM     40  H   UNL     1       8.226  12.385  19.168  1.00  0.00     0.293 HD
ENDBRANCH  15  39
TORSDOF 7
ENDMDL
MODEL 4
REMARK VINA RESULT:    -8.477      2.302      4.156
REMARK INTER + INTRA:         -10.940
REMARK INTER:                 -10.365
REMARK INTRA:                  -0.575
REMARK UNBOUND:                -0.233
REMARK SMILES CN(C)[C@@H]1C(O)=C(C(N)=O)C(=O)[C@@]2(O)C(O)=C3C(=O)c4c(O)ccc(Cl)c4[C@@](C)(O)[C@H]3C[C@@H]12
REMARK SMILES IDX 33 1 32 2 31 3 17 4 15 5 13 6 11 7 12 8 7 9 5 10 4 11 18 12
REMARK SMILES IDX 19 13 20 14 21 15 23 16 24 17 25 18 26 19 27 20 28 21 29 22
REMARK SMILES IDX 14 23 2 25 1 26 3 27 16 28 6 30 30 32 8 34 9 35 10 36 22 39
REMARK H PARENT 14 24 16 29 6 31 30 33 9 37 9 38 22 40
REMARK Flexibility Score: inf
ROOT
ATOM      1  C   UNL     1      11.125   9.575  18.893  1.00  0.00     0.062 C 
ATOM      2  C   UNL     1      10.425  10.631  17.968  1.00  0.00     0.021 C 
ATOM      3  C   UNL     1      10.503  12.092  18.485  1.00  0.00     0.063 C 
ATOM      4  C   UNL     1      11.875  12.348  19.090  1.00  0.00     0.048 C 
ATOM      5  C   UNL     1      12.373  11.441  19.970  1.00  0.00     0.140 C 
ATOM      6  C   UNL     1      11.554  10.193  20.258  1.00  0.00     0.190 C 
ATOM      7  C   UNL     1      12.356   9.196  21.060  1.00  0.00     0.211 C 
ATOM      8  O   UNL     1      12.420   9.342  22.311  1.00  0.00    -0.290 OA
ATOM      9  C   UNL     1      13.144   8.127  20.405  1.00  0.00     0.125 C 
ATOM     10  C   UNL     1      13.184   8.023  19.060  1.00  0.00     0.126 C 
ATOM     11  C   UNL     1      12.323   8.910  18.149  1.00  0.00     0.130 C 
ATOM     12  C   UNL     1      12.681  13.439  18.523  1.00  0.00     0.197 C 
ATOM     13  O   UNL     1      13.450  14.132  19.242  1.00  0.00    -0.289 OA
ATOM     14  C   UNL     1      12.510  13.752  17.094  1.00  0.00     0.072 A 
ATOM     15  C   UNL     1      13.599  14.217  16.333  1.00  0.00     0.127 A 
ATOM     16  C   UNL     1      13.421  14.530  14.985  1.00  0.00     0.048 A 
ATOM     17  C   UNL     1      12.167  14.409  14.397  1.00  0.00     0.025 A 
ATOM     18  C   UNL     1      11.070  13.957  15.136  1.00  0.00     0.048 A 
ATOM     19  Cl  UNL     1       9.517  13.995  14.304  1.00  0.00    -0.084 Cl
ATOM     20  C   UNL     1      11.237  13.566  16.497  1.00  0.00     0.017 A 
ATOM     21  C   UNL     1      10.063  13.149  17.400  1.00  0.00     0.096 C 
ATOM     22  C   UNL     1       9.531  14.429  18.085  1.00  0.00     0.048 C 
ENDROOT
BRANCH   6  23
ATOM     23  O   UNL     1      10.420  10.567  21.008  1.00  0.00    -0.374 OA
ATOM     24  H   UNL     1      10.472  10.120  21.894  1.00  0.00     0.212 HD
ENDBRANCH   6  23
BRANCH  11  25
ATOM     25  N   UNL     1      11.771   8.199  16.960  1.00  0.00    -0.299 NA
ATOM     26  C   UNL     1      11.389   6.789  17.149  1.00  0.00     0.105 C 
ATOM     27  C   UNL     1      12.497   8.441  15.703  1.00  0.00     0.105 C 
ENDBRANCH  11  25
BRANCH   5  28
ATOM     28  O   UNL     1      13.642  11.556  20.551  1.00  0.00    -0.508 OA
ATOM     29  H   UNL     1      13.874  12.166  21.320  1.00  0.00     0.293 HD
ENDBRANCH   5  28
BRANCH  10  30
ATOM     30  O   UNL     1      14.093   7.125  18.499  1.00  0.00    -0.510 OA
ATOM     31  H   UNL     1      14.338   6.245  18.926  1.00  0.00     0.293 HD
ENDBRANCH  10  30
BRANCH  21  32
ATOM     32  O   UNL     1       9.025  12.592  16.625  1.00  0.00    -0.385 OA
ATOM     33  H   UNL     1       8.969  13.097  15.769  1.00  0.00     0.211 HD
ENDBRANCH  21  32
BRANCH   9  34
ATOM     34  C   UNL     1      13.950   7.216  21.258  1.00  0.00     0.255 C 
ATOM     35  N   UNL     1      13.366   6.576  22.394  1.00  0.00    -0.365 N 
ATOM     36  O   UNL     1      15.161   6.996  20.985  1.00  0.00    -0.269 OA
ATOM     37  H   UNL     1      13.943   5.955  23.002  1.00  0.00     0.159 HD
ATOM     38  H   UNL     1      12.343   6.651  22.582  1.00  0.00     0.159 HD
ENDBRANCH   9  34
BRANCH  15  39
ATOM     39  O   UNL     1      14.862  14.356  16.913  1.00  0.00    -0.507 OA
ATOM     40  H   UNL     1      15.072  15.110  17.554  1.00  0.00     0.293 HD
ENDBRANCH  15  39
TORSDOF 7
ENDMDL
MODEL 5
REMARK VINA RESULT:    -8.268      3.259      6.997
REMARK INTER + INTRA:         -10.676
REMARK INTER:                  -9.968
REMARK INTRA:                  -0.709
REMARK UNBOUND:                -0.233
REMARK SMILES CN(C)[C@@H]1C(O)=C(C(N)=O)C(=O)[C@@]2(O)C(O)=C3C(=O)c4c(O)ccc(Cl)c4[C@@](C)(O)[C@H]3C[C@@H]12
REMARK SMILES IDX 33 1 32 2 31 3 17 4 15 5 13 6 11 7 12 8 7 9 5 10 4 11 18 12
REMARK SMILES IDX 19 13 20 14 21 15 23 16 24 17 25 18 26 19 27 20 28 21 29 22
REMARK SMILES IDX 14 23 2 25 1 26 3 27 16 28 6 30 30 32 8 34 9 35 10 36 22 39
REMARK H PARENT 14 24 16 29 6 31 30 33 9 37 9 38 22 40
REMARK Flexibility Score: inf
ROOT
ATOM      1  C   UNL     1      11.462  14.021  16.209  1.00  0.00     0.062 C 
ATOM      2  C   UNL     1      11.028  13.152  17.440  1.00  0.00     0.021 C 
ATOM      3  C   UNL     1      10.364  11.799  17.070  1.00  0.00     0.063 C 
ATOM      4  C   UNL     1      11.080  11.188  15.875  1.00  0.00     0.048 C 
ATOM      5  C   UNL     1      11.327  11.975  14.797  1.00  0.00     0.140 C 
ATOM      6  C   UNL     1      10.923  13.439  14.868  1.00  0.00     0.190 C 
ATOM      7  C   UNL     1      11.482  14.210  13.696  1.00  0.00     0.211 C 
ATOM      8  O   UNL     1      10.859  14.176  12.600  1.00  0.00    -0.290 OA
ATOM      9  C   UNL     1      12.786  14.908  13.776  1.00  0.00     0.125 C 
ATOM     10  C   UNL     1      13.527  14.860  14.903  1.00  0.00     0.126 C 
ATOM     11  C   UNL     1      13.011  14.201  16.190  1.00  0.00     0.130 C 
ATOM     12  C   UNL     1      11.665   9.848  16.038  1.00  0.00     0.197 C 
ATOM     13  O   UNL     1      11.700   9.024  15.085  1.00  0.00    -0.289 OA
ATOM     14  C   UNL     1      12.146   9.464  17.377  1.00  0.00     0.072 A 
ATOM     15  C   UNL     1      13.255   8.608  17.515  1.00  0.00     0.127 A 
ATOM     16  C   UNL     1      13.690   8.235  18.786  1.00  0.00     0.048 A 
ATOM     17  C   UNL     1      13.017   8.683  19.917  1.00  0.00     0.025 A 
ATOM     18  C   UNL     1      11.909   9.527  19.803  1.00  0.00     0.048 A 
ATOM     19  Cl  UNL     1      11.066   9.895  21.307  1.00  0.00    -0.084 Cl
ATOM     20  C   UNL     1      11.483   9.980  18.520  1.00  0.00     0.017 A 
ATOM     21  C   UNL     1      10.219  10.830  18.307  1.00  0.00     0.096 C 
ATOM     22  C   UNL     1       9.039   9.856  18.087  1.00  0.00     0.048 C 
ENDROOT
BRANCH   6  23
ATOM     23  O   UNL     1       9.516  13.516  14.827  1.00  0.00    -0.374 OA
ATOM     24  H   UNL     1       9.230  13.486  13.876  1.00  0.00     0.212 HD
ENDBRANCH   6  23
BRANCH  11  25
ATOM     25  N   UNL     1      13.392  14.927  17.435  1.00  0.00    -0.299 NA
ATOM     26  C   UNL     1      13.177  16.384  17.445  1.00  0.00     0.105 C 
ATOM     27  C   UNL     1      14.684  14.526  18.013  1.00  0.00     0.105 C 
ENDBRANCH  11  25
BRANCH   5  28
ATOM     28  O   UNL     1      12.018  11.527  13.664  1.00  0.00    -0.508 OA
ATOM     29  H   UNL     1      11.628  10.940  12.943  1.00  0.00     0.293 HD
ENDBRANCH   5  28
BRANCH  10  30
ATOM     30  O   UNL     1      14.826  15.367  14.854  1.00  0.00    -0.510 OA
ATOM     31  H   UNL     1      15.647  14.809  15.029  1.00  0.00     0.293 HD
ENDBRANCH  10  30
BRANCH  21  32
ATOM     32  O   UNL     1       9.952  11.604  19.455  1.00  0.00    -0.385 OA
ATOM     33  H   UNL     1       9.022  11.949  19.389  1.00  0.00     0.211 HD
ENDBRANCH  21  32
BRANCH   9  34
ATOM     34  C   UNL     1      13.296  15.601  12.564  1.00  0.00     0.255 C 
ATOM     35  N   UNL     1      12.611  16.736  12.034  1.00  0.00    -0.365 N 
ATOM     36  O   UNL     1      14.342  15.192  11.992  1.00  0.00    -0.269 OA
ATOM     37  H   UNL     1      12.962  17.205  11.170  1.00  0.00     0.159 HD
ATOM     38  H   UNL     1      11.808  17.163  12.545  1.00  0.00     0.159 HD
ENDBRANCH   9  34
BRANCH  15  39
ATOM     39  O   UNL     1      13.933   8.140  16.387  1.00  0.00    -0.507 OA
ATOM     40  H   UNL     1      13.439   7.775  15.583  1.00  0.00     0.293 HD
ENDBRANCH  15  39
TORSDOF 7
ENDMDL
MODEL 6
REMARK VINA RESULT:    -8.235      2.888      5.077
REMARK INTER + INTRA:         -10.635
REMARK INTER:                  -9.921
REMARK INTRA:                  -0.714
REMARK UNBOUND:                -0.233
REMARK SMILES CN(C)[C@@H]1C(O)=C(C(N)=O)C(=O)[C@@]2(O)C(O)=C3C(=O)c4c(O)ccc(Cl)c4[C@@](C)(O)[C@H]3C[C@@H]12
REMARK SMILES IDX 33 1 32 2 31 3 17 4 15 5 13 6 11 7 12 8 7 9 5 10 4 11 18 12
REMARK SMILES IDX 19 13 20 14 21 15 23 16 24 17 25 18 26 19 27 20 28 21 29 22
REMARK SMILES IDX 14 23 2 25 1 26 3 27 16 28 6 30 30 32 8 34 9 35 10 36 22 39
REMARK H PARENT 14 24 16 29 6 31 30 33 9 37 9 38 22 40
REMARK Flexibility Score: inf
ROOT
ATOM      1  C   UNL     1      10.435  11.696  19.063  1.00  0.00     0.062 C 
ATOM      2  C   UNL     1       9.544  12.985  19.109  1.00  0.00     0.021 C 
ATOM      3  C   UNL     1      10.190  14.238  18.461  1.00  0.00     0.063 C 
ATOM      4  C   UNL     1      10.941  13.832  17.202  1.00  0.00     0.048 C 
ATOM      5  C   UNL     1      11.782  12.768  17.265  1.00  0.00     0.140 C 
ATOM      6  C   UNL     1      11.883  12.007  18.577  1.00  0.00     0.190 C 
ATOM      7  C   UNL     1      12.666  10.729  18.400  1.00  0.00     0.211 C 
ATOM      8  O   UNL     1      13.926  10.785  18.432  1.00  0.00    -0.290 OA
ATOM      9  C   UNL     1      11.998   9.444  18.088  1.00  0.00     0.125 C 
ATOM     10  C   UNL     1      10.659   9.382  17.934  1.00  0.00     0.126 C 
ATOM     11  C   UNL     1       9.751  10.592  18.198  1.00  0.00     0.130 C 
ATOM     12  C   UNL     1      10.549  14.468  15.935  1.00  0.00     0.197 C 
ATOM     13  O   UNL     1      11.395  14.719  15.035  1.00  0.00    -0.289 OA
ATOM     14  C   UNL     1       9.143  14.876  15.775  1.00  0.00     0.072 A 
ATOM     15  C   UNL     1       8.530  14.833  14.507  1.00  0.00     0.127 A 
ATOM     16  C   UNL     1       7.204  15.240  14.364  1.00  0.00     0.048 A 
ATOM     17  C   UNL     1       6.493  15.714  15.460  1.00  0.00     0.025 A 
ATOM     18  C   UNL     1       7.084  15.773  16.726  1.00  0.00     0.048 A 
ATOM     19  Cl  UNL     1       6.117  16.530  17.990  1.00  0.00    -0.084 Cl
ATOM     20  C   UNL     1       8.415  15.299  16.917  1.00  0.00     0.017 A 
ATOM     21  C   UNL     1       9.165  15.419  18.255  1.00  0.00     0.096 C 
ATOM     22  C   UNL     1       9.906  16.775  18.250  1.00  0.00     0.048 C 
ENDROOT
BRANCH   6  23
ATOM     23  O   UNL     1      12.553  12.820  19.514  1.00  0.00    -0.374 OA
ATOM     24  H   UNL     1      11.946  12.969  20.286  1.00  0.00     0.212 HD
ENDBRANCH   6  23
BRANCH  11  25
ATOM     25  N   UNL     1       8.459  10.246  18.857  1.00  0.00    -0.299 NA
ATOM     26  C   UNL     1       8.532   9.391  20.054  1.00  0.00     0.105 C 
ATOM     27  C   UNL     1       7.379   9.863  17.933  1.00  0.00     0.105 C 
ENDBRANCH  11  25
BRANCH   5  28
ATOM     28  O   UNL     1      12.487  12.283  16.156  1.00  0.00    -0.508 OA
ATOM     29  H   UNL     1      12.213  11.490  15.597  1.00  0.00     0.293 HD
ENDBRANCH   5  28
BRANCH  10  30
ATOM     30  O   UNL     1      10.110   8.194  17.451  1.00  0.00    -0.510 OA
ATOM     31  H   UNL     1      10.232   7.872  16.504  1.00  0.00     0.293 HD
ENDBRANCH  10  30
BRANCH  21  32
ATOM     32  O   UNL     1       8.251  15.412  19.328  1.00  0.00    -0.385 OA
ATOM     33  H   UNL     1       7.503  14.798  19.097  1.00  0.00     0.211 HD
ENDBRANCH  21  32
BRANCH   9  34
ATOM     34  C   UNL     1      12.841   8.239  17.876  1.00  0.00     0.255 C 
ATOM     35  N   UNL     1      13.759   8.177  16.784  1.00  0.00    -0.365 N 
ATOM     36  O   UNL     1      12.754   7.257  18.662  1.00  0.00    -0.269 OA
ATOM     37  H   UNL     1      14.332   7.319  16.627  1.00  0.00     0.159 HD
ATOM     38  H   UNL     1      13.932   9.012  16.183  1.00  0.00     0.159 HD
ENDBRANCH   9  34
BRANCH  15  39
ATOM     39  O   UNL     1       9.236  14.372  13.395  1.00  0.00    -0.507 OA
ATOM     40  H   UNL     1       9.606  13.431  13.352  1.00  0.00     0.293 HD
ENDBRANCH  15  39
TORSDOF 7
ENDMDL
MODEL 7
REMARK VINA RESULT:    -8.181      2.998      5.775
REMARK INTER + INTRA:         -10.566
REMARK INTER:                  -9.858
REMARK INTRA:                  -0.709
REMARK UNBOUND:                -0.233
REMARK SMILES CN(C)[C@@H]1C(O)=C(C(N)=O)C(=O)[C@@]2(O)C(O)=C3C(=O)c4c(O)ccc(Cl)c4[C@@](C)(O)[C@H]3C[C@@H]12
REMARK SMILES IDX 33 1 32 2 31 3 17 4 15 5 13 6 11 7 12 8 7 9 5 10 4 11 18 12
REMARK SMILES IDX 19 13 20 14 21 15 23 16 24 17 25 18 26 19 27 20 28 21 29 22
REMARK SMILES IDX 14 23 2 25 1 26 3 27 16 28 6 30 30 32 8 34 9 35 10 36 22 39
REMARK H PARENT 14 24 16 29 6 31 30 33 9 37 9 38 22 40
REMARK Flexibility Score: inf
ROOT
ATOM      1  C   UNL     1      12.316  10.042  20.356  1.00  0.00     0.062 C 
ATOM      2  C   UNL     1      12.735  11.278  21.226  1.00  0.00     0.021 C 
ATOM      3  C   UNL     1      14.263  11.550  21.264  1.00  0.00     0.063 C 
ATOM      4  C   UNL     1      14.861  11.304  19.886  1.00  0.00     0.048 C 
ATOM      5  C   UNL     1      14.537  10.157  19.236  1.00  0.00     0.140 C 
ATOM      6  C   UNL     1      13.551   9.209  19.898  1.00  0.00     0.190 C 
ATOM      7  C   UNL     1      13.126   8.119  18.942  1.00  0.00     0.211 C 
ATOM      8  O   UNL     1      13.874   7.113  18.804  1.00  0.00    -0.290 OA
ATOM      9  C   UNL     1      11.919   8.256  18.095  1.00  0.00     0.125 C 
ATOM     10  C   UNL     1      11.166   9.375  18.140  1.00  0.00     0.126 C 
ATOM     11  C   UNL     1      11.438  10.499  19.150  1.00  0.00     0.130 C 
ATOM     12  C   UNL     1      15.572  12.417  19.240  1.00  0.00     0.197 C 
ATOM     13  O   UNL     1      16.572  12.218  18.499  1.00  0.00    -0.289 OA
ATOM     14  C   UNL     1      15.128  13.789  19.543  1.00  0.00     0.072 A 
ATOM     15  C   UNL     1      15.217  14.797  18.565  1.00  0.00     0.127 A 
ATOM     16  C   UNL     1      14.812  16.096  18.870  1.00  0.00     0.048 A 
ATOM     17  C   UNL     1      14.347  16.407  20.143  1.00  0.00     0.025 A 
ATOM     18  C   UNL     1      14.258  15.423  21.132  1.00  0.00     0.048 A 
ATOM     19  Cl  UNL     1      13.794  15.986  22.736  1.00  0.00    -0.084 Cl
ATOM     20  C   UNL     1      14.600  14.072  20.830  1.00  0.00     0.017 A 
ATOM     21  C   UNL     1      14.620  12.954  21.887  1.00  0.00     0.096 C 
ATOM     22  C   UNL     1      16.039  12.922  22.499  1.00  0.00     0.048 C 
ENDROOT
BRANCH   6  23
ATOM     23  O   UNL     1      14.182   8.612  21.009  1.00  0.00    -0.374 OA
ATOM     24  H   UNL     1      14.094   9.228  21.783  1.00  0.00     0.212 HD
ENDBRANCH   6  23
BRANCH  11  25
ATOM     25  N   UNL     1      10.203  11.121  19.708  1.00  0.00    -0.299 NA
ATOM     26  C   UNL     1       9.167  10.203  20.213  1.00  0.00     0.105 C 
ATOM     27  C   UNL     1       9.657  12.232  18.912  1.00  0.00     0.105 C 
ENDBRANCH  11  25
BRANCH   5  28
ATOM     28  O   UNL     1      14.994   9.853  17.947  1.00  0.00    -0.508 OA
ATOM     29  H   UNL     1      15.687  10.381  17.439  1.00  0.00     0.293 HD
ENDBRANCH   5  28
BRANCH  10  30
ATOM     30  O   UNL     1      10.161   9.527  17.184  1.00  0.00    -0.510 OA
ATOM     31  H   UNL     1      10.307   9.379  16.198  1.00  0.00     0.293 HD
ENDBRANCH  10  30
BRANCH  21  32
ATOM     32  O   UNL     1      13.696  13.238  22.913  1.00  0.00    -0.385 OA
ATOM     33  H   UNL     1      14.053  13.991  23.455  1.00  0.00     0.211 HD
ENDBRANCH  21  32
BRANCH   9  34
ATOM     34  C   UNL     1      11.595   7.164  17.139  1.00  0.00     0.255 C 
ATOM     35  N   UNL     1      11.319   5.845  17.610  1.00  0.00    -0.365 N 
ATOM     36  O   UNL     1      11.558   7.395  15.901  1.00  0.00    -0.269 OA
ATOM     37  H   UNL     1      11.113   5.077  16.933  1.00  0.00     0.159 HD
ATOM     38  H   UNL     1      11.234   5.648  18.631  1.00  0.00     0.159 HD
ENDBRANCH   9  34
BRANCH  15  39
ATOM     39  O   UNL     1      15.694  14.504  17.286  1.00  0.00    -0.507 OA
ATOM     40  H   UNL     1      15.071  14.412  16.494  1.00  0.00     0.293 HD
ENDBRANCH  15  39
TORSDOF 7
ENDMDL
MODEL 8
REMARK VINA RESULT:    -8.092      3.233      5.995
REMARK INTER + INTRA:         -10.454
REMARK INTER:                  -9.954
REMARK INTRA:                  -0.500
REMARK UNBOUND:                -0.233
REMARK SMILES CN(C)[C@@H]1C(O)=C(C(N)=O)C(=O)[C@@]2(O)C(O)=C3C(=O)c4c(O)ccc(Cl)c4[C@@](C)(O)[C@H]3C[C@@H]12
REMARK SMILES IDX 33 1 32 2 31 3 17 4 15 5 13 6 11 7 12 8 7 9 5 10 4 11 18 12
REMARK SMILES IDX 19 13 20 14 21 15 23 16 24 17 25 18 26 19 27 20 28 21 29 22
REMARK SMILES IDX 14 23 2 25 1 26 3 27 16 28 6 30 30 32 8 34 9 35 10 36 22 39
REMARK H PARENT 14 24 16 29 6 31 30 33 9 37 9 38 22 40
REMARK Flexibility Score: inf
ROOT
ATOM      1  C   UNL     1      13.741  10.530  18.392  1.00  0.00     0.062 C 
ATOM      2  C   UNL     1      15.195  11.078  18.604  1.00  0.00     0.021 C 
ATOM      3  C   UNL     1      15.465  12.457  17.945  1.00  0.00     0.063 C 
ATOM      4  C   UNL     1      14.244  13.350  18.108  1.00  0.00     0.048 C 
ATOM      5  C   UNL     1      13.024  12.840  17.802  1.00  0.00     0.140 C 
ATOM      6  C   UNL     1      12.941  11.386  17.365  1.00  0.00     0.190 C 
ATOM      7  C   UNL     1      11.505  10.924  17.298  1.00  0.00     0.211 C 
ATOM      8  O   UNL     1      10.835  11.187  16.262  1.00  0.00    -0.290 OA
ATOM      9  C   UNL     1      10.844  10.271  18.452  1.00  0.00     0.125 C 
ATOM     10  C   UNL     1      11.507  10.084  19.612  1.00  0.00     0.126 C 
ATOM     11  C   UNL     1      13.000  10.412  19.760  1.00  0.00     0.130 C 
ATOM     12  C   UNL     1      14.424  14.635  18.800  1.00  0.00     0.197 C 
ATOM     13  O   UNL     1      13.761  15.657  18.474  1.00  0.00    -0.289 OA
ATOM     14  C   UNL     1      15.459  14.718  19.845  1.00  0.00     0.072 A 
ATOM     15  C   UNL     1      15.278  15.557  20.961  1.00  0.00     0.127 A 
ATOM     16  C   UNL     1      16.274  15.642  21.933  1.00  0.00     0.048 A 
ATOM     17  C   UNL     1      17.456  14.924  21.792  1.00  0.00     0.025 A 
ATOM     18  C   UNL     1      17.660  14.092  20.688  1.00  0.00     0.048 A 
ATOM     19  Cl  UNL     1      19.259  13.360  20.564  1.00  0.00    -0.084 Cl
ATOM     20  C   UNL     1      16.633  13.931  19.713  1.00  0.00     0.017 A 
ATOM     21  C   UNL     1      16.819  13.110  18.425  1.00  0.00     0.096 C 
ATOM     22  C   UNL     1      17.364  14.068  17.341  1.00  0.00     0.048 C 
ENDROOT
BRANCH   6  23
ATOM     23  O   UNL     1      13.511  11.273  16.080  1.00  0.00    -0.374 OA
ATOM     24  H   UNL     1      14.080  10.459  16.063  1.00  0.00     0.212 HD
ENDBRANCH   6  23
BRANCH  11  25
ATOM     25  N   UNL     1      13.754   9.433  20.594  1.00  0.00    -0.299 NA
ATOM     26  C   UNL     1      13.578   8.008  20.266  1.00  0.00     0.105 C 
ATOM     27  C   UNL     1      13.728   9.704  22.040  1.00  0.00     0.105 C 
ENDBRANCH  11  25
BRANCH   5  28
ATOM     28  O   UNL     1      11.833  13.559  17.958  1.00  0.00    -0.508 OA
ATOM     29  H   UNL     1      11.550  14.342  17.388  1.00  0.00     0.293 HD
ENDBRANCH   5  28
BRANCH  10  30
ATOM     30  O   UNL     1      10.779   9.646  20.719  1.00  0.00    -0.510 OA
ATOM     31  H   UNL     1       9.938  10.097  21.043  1.00  0.00     0.293 HD
ENDBRANCH  10  30
BRANCH  21  32
ATOM     32  O   UNL     1      17.763  12.085  18.633  1.00  0.00    -0.385 OA
ATOM     33  H   UNL     1      17.441  11.266  18.170  1.00  0.00     0.211 HD
ENDBRANCH  21  32
BRANCH   9  34
ATOM     34  C   UNL     1       9.412   9.893  18.329  1.00  0.00     0.255 C 
ATOM     35  N   UNL     1       8.402  10.641  19.005  1.00  0.00    -0.365 N 
ATOM     36  O   UNL     1       9.076   8.906  17.621  1.00  0.00    -0.269 OA
ATOM     37  H   UNL     1       7.400  10.357  18.933  1.00  0.00     0.159 HD
ATOM     38  H   UNL     1       8.637  11.525  19.508  1.00  0.00     0.159 HD
ENDBRANCH   9  34
BRANCH  15  39
ATOM     39  O   UNL     1      14.101  16.294  21.109  1.00  0.00    -0.507 OA
ATOM     40  H   UNL     1      13.237  16.010  20.666  1.00  0.00     0.293 HD
ENDBRANCH  15  39
TORSDOF 7
ENDMDL
MODEL 9
REMARK VINA RESULT:    -8.000      1.965      3.012
REMARK INTER + INTRA:         -10.337
REMARK INTER:                  -9.784
REMARK INTRA:                  -0.553
REMARK UNBOUND:                -0.233
REMARK SMILES CN(C)[C@@H]1C(O)=C(C(N)=O)C(=O)[C@@]2(O)C(O)=C3C(=O)c4c(O)ccc(Cl)c4[C@@](C)(O)[C@H]3C[C@@H]12
REMARK SMILES IDX 33 1 32 2 31 3 17 4 15 5 13 6 11 7 12 8 7 9 5 10 4 11 18 12
REMARK SMILES IDX 19 13 20 14 21 15 23 16 24 17 25 18 26 19 27 20 28 21 29 22
REMARK SMILES IDX 14 23 2 25 1 26 3 27 16 28 6 30 30 32 8 34 9 35 10 36 22 39
REMARK H PARENT 14 24 16 29 6 31 30 33 9 37 9 38 22 40
REMARK Flexibility Score: inf
ROOT
ATOM      1  C   UNL     1      13.083  11.561  16.093  1.00  0.00     0.062 C 
ATOM      2  C   UNL     1      12.839  12.862  15.252  1.00  0.00     0.021 C 
ATOM      3  C   UNL     1      11.412  12.984  14.654  1.00  0.00     0.063 C 
ATOM      4  C   UNL     1      10.390  12.484  15.665  1.00  0.00     0.048 C 
ATOM      5  C   UNL     1      10.615  11.293  16.277  1.00  0.00     0.140 C 
ATOM      6  C   UNL     1      11.903  10.552  15.958  1.00  0.00     0.190 C 
ATOM      7  C   UNL     1      12.099   9.383  16.894  1.00  0.00     0.211 C 
ATOM      8  O   UNL     1      11.509   8.299  16.635  1.00  0.00    -0.290 OA
ATOM      9  C   UNL     1      12.873   9.515  18.150  1.00  0.00     0.125 C 
ATOM     10  C   UNL     1      13.417  10.698  18.506  1.00  0.00     0.126 C 
ATOM     11  C   UNL     1      13.377  11.924  17.582  1.00  0.00     0.130 C 
ATOM     12  C   UNL     1       9.335  13.416  16.090  1.00  0.00     0.197 C 
ATOM     13  O   UNL     1       8.173  13.014  16.366  1.00  0.00    -0.289 OA
ATOM     14  C   UNL     1       9.654  14.854  16.115  1.00  0.00     0.072 A 
ATOM     15  C   UNL     1       9.064  15.697  17.076  1.00  0.00     0.127 A 
ATOM     16  C   UNL     1       9.357  17.060  17.077  1.00  0.00     0.048 A 
ATOM     17  C   UNL     1      10.209  17.596  16.117  1.00  0.00     0.025 A 
ATOM     18  C   UNL     1      10.800  16.778  15.150  1.00  0.00     0.048 A 
ATOM     19  Cl  UNL     1      11.737  17.611  13.910  1.00  0.00    -0.084 Cl
ATOM     20  C   UNL     1      10.573  15.371  15.165  1.00  0.00     0.017 A 
ATOM     21  C   UNL     1      11.110  14.422  14.080  1.00  0.00     0.096 C 
ATOM     22  C   UNL     1      10.039  14.339  12.968  1.00  0.00     0.048 C 
ENDROOT
BRANCH   6  23
ATOM     23  O   UNL     1      11.823  10.063  14.637  1.00  0.00    -0.374 OA
ATOM     24  H   UNL     1      12.674   9.597  14.427  1.00  0.00     0.212 HD
ENDBRANCH   6  23
BRANCH  11  25
ATOM     25  N   UNL     1      14.625  12.739  17.605  1.00  0.00    -0.299 NA
ATOM     26  C   UNL     1      15.883  12.018  17.862  1.00  0.00     0.105 C 
ATOM     27  C   UNL     1      14.520  14.007  18.344  1.00  0.00     0.105 C 
ENDBRANCH  11  25
BRANCH   5  28
ATOM     28  O   UNL     1       9.763  10.762  17.253  1.00  0.00    -0.508 OA
ATOM     29  H   UNL     1       9.277   9.882  17.181  1.00  0.00     0.293 HD
ENDBRANCH   5  28
BRANCH  10  30
ATOM     30  O   UNL     1      13.963  10.809  19.785  1.00  0.00    -0.510 OA
ATOM     31  H   UNL     1      14.859  11.231  19.970  1.00  0.00     0.293 HD
ENDBRANCH  10  30
BRANCH  21  32
ATOM     32  O   UNL     1      12.295  14.941  13.521  1.00  0.00    -0.385 OA
ATOM     33  H   UNL     1      12.312  14.709  12.554  1.00  0.00     0.211 HD
ENDBRANCH  21  32
BRANCH   9  34
ATOM     34  C   UNL     1      12.977   8.334  19.046  1.00  0.00     0.255 C 
ATOM     35  N   UNL     1      13.625   7.141  18.604  1.00  0.00    -0.365 N 
ATOM     36  O   UNL     1      12.495   8.377  20.210  1.00  0.00    -0.269 OA
ATOM     37  H   UNL     1      13.676   6.307  19.231  1.00  0.00     0.159 HD
ATOM     38  H   UNL     1      14.128   7.112  17.691  1.00  0.00     0.159 HD
ENDBRANCH   9  34
BRANCH  15  39
ATOM     39  O   UNL     1       8.196  15.176  18.037  1.00  0.00    -0.507 OA
ATOM     40  H   UNL     1       7.278  14.826  17.792  1.00  0.00     0.293 HD
ENDBRANCH  15  39
TORSDOF 7
ENDMDL
MODEL 10
REMARK VINA RESULT:    -7.948      3.276      7.148
REMARK INTER + INTRA:         -10.272
REMARK INTER:                  -9.555
REMARK INTRA:                  -0.717
REMARK UNBOUND:                -0.233
REMARK SMILES CN(C)[C@@H]1C(O)=C(C(N)=O)C(=O)[C@@]2(O)C(O)=C3C(=O)c4c(O)ccc(Cl)c4[C@@](C)(O)[C@H]3C[C@@H]12
REMARK SMILES IDX 33 1 32 2 31 3 17 4 15 5 13 6 11 7 12 8 7 9 5 10 4 11 18 12
REMARK SMILES IDX 19 13 20 14 21 15 23 16 24 17 25 18 26 19 27 20 28 21 29 22
REMARK SMILES IDX 14 23 2 25 1 26 3 27 16 28 6 30 30 32 8 34 9 35 10 36 22 39
REMARK H PARENT 14 24 16 29 6 31 30 33 9 37 9 38 22 40
REMARK Flexibility Score: inf
ROOT
ATOM      1  C   UNL     1      11.052  12.944  15.607  1.00  0.00     0.062 C 
ATOM      2  C   UNL     1      11.173  11.402  15.869  1.00  0.00     0.021 C 
ATOM      3  C   UNL     1      12.620  10.847  15.787  1.00  0.00     0.063 C 
ATOM      4  C   UNL     1      13.585  11.840  16.415  1.00  0.00     0.048 C 
ATOM      5  C   UNL     1      13.492  13.147  16.058  1.00  0.00     0.140 C 
ATOM      6  C   UNL     1      12.391  13.552  15.091  1.00  0.00     0.190 C 
ATOM      7  C   UNL     1      12.285  15.055  14.994  1.00  0.00     0.211 C 
ATOM      8  O   UNL     1      13.073  15.667  14.222  1.00  0.00    -0.290 OA
ATOM      9  C   UNL     1      11.358  15.826  15.855  1.00  0.00     0.125 C 
ATOM     10  C   UNL     1      10.588  15.203  16.772  1.00  0.00     0.126 C 
ATOM     11  C   UNL     1      10.531  13.673  16.884  1.00  0.00     0.130 C 
ATOM     12  C   UNL     1      14.413  11.375  17.538  1.00  0.00     0.197 C 
ATOM     13  O   UNL     1      15.586  11.803  17.713  1.00  0.00    -0.289 OA
ATOM     14  C   UNL     1      13.859  10.331  18.417  1.00  0.00     0.072 A 
ATOM     15  C   UNL     1      14.185  10.309  19.787  1.00  0.00     0.127 A 
ATOM     16  C   UNL     1      13.670   9.304  20.606  1.00  0.00     0.048 A 
ATOM     17  C   UNL     1      12.859   8.310  20.072  1.00  0.00     0.025 A 
ATOM     18  C   UNL     1      12.529   8.308  18.713  1.00  0.00     0.048 A 
ATOM     19  Cl  UNL     1      11.618   6.910  18.147  1.00  0.00    -0.084 Cl
ATOM     20  C   UNL     1      12.985   9.360  17.865  1.00  0.00     0.017 A 
ATOM     21  C   UNL     1      12.743   9.377  16.346  1.00  0.00     0.096 C 
ATOM     22  C   UNL     1      13.936   8.651  15.681  1.00  0.00     0.048 C 
ENDROOT
BRANCH   6  23
ATOM     23  O   UNL     1      12.706  13.040  13.816  1.00  0.00    -0.374 OA
ATOM     24  H   UNL     1      13.634  12.687  13.843  1.00  0.00     0.212 HD
ENDBRANCH   6  23
BRANCH  11  25
ATOM     25  N   UNL     1       9.170  13.139  17.179  1.00  0.00    -0.299 NA
ATOM     26  C   UNL     1       8.057  13.685  16.384  1.00  0.00     0.105 C 
ATOM     27  C   UNL     1       8.855  13.010  18.610  1.00  0.00     0.105 C 
ENDBRANCH  11  25
BRANCH   5  28
ATOM     28  O   UNL     1      14.301  14.150  16.608  1.00  0.00    -0.508 OA
ATOM     29  H   UNL     1      14.630  14.171  17.561  1.00  0.00     0.293 HD
ENDBRANCH   5  28
BRANCH  10  30
ATOM     30  O   UNL     1       9.885  15.994  17.682  1.00  0.00    -0.510 OA
ATOM     31  H   UNL     1       9.948  17.000  17.706  1.00  0.00     0.293 HD
ENDBRANCH  10  30
BRANCH  21  32
ATOM     32  O   UNL     1      11.562   8.676  16.032  1.00  0.00    -0.385 OA
ATOM     33  H   UNL     1      11.031   9.227  15.396  1.00  0.00     0.211 HD
ENDBRANCH  21  32
BRANCH   9  34
ATOM     34  C   UNL     1      11.348  17.308  15.739  1.00  0.00     0.255 C 
ATOM     35  N   UNL     1      12.532  18.065  15.994  1.00  0.00    -0.365 N 
ATOM     36  O   UNL     1      10.292  17.911  15.411  1.00  0.00    -0.269 OA
ATOM     37  H   UNL     1      12.513  19.107  15.932  1.00  0.00     0.159 HD
ATOM     38  H   UNL     1      13.446  17.589  16.159  1.00  0.00     0.159 HD
ENDBRANCH   9  34
BRANCH  15  39
ATOM     39  O   UNL     1      15.009  11.294  20.335  1.00  0.00    -0.507 OA
ATOM     40  H   UNL     1      14.714  12.260  20.398  1.00  0.00     0.293 HD
ENDBRANCH  15  39
TORSDOF 7
ENDMDL
MODEL 11
REMARK VINA RESULT:    -7.920      3.103      4.548
REMARK INTER + INTRA:         -10.237
REMARK INTER:                  -9.574
REMARK INTRA:                  -0.664
REMARK UNBOUND:                -0.233
REMARK SMILES CN(C)[C@@H]1C(O)=C(C(N)=O)C(=O)[C@@]2(O)C(O)=C3C(=O)c4c(O)ccc(Cl)c4[C@@](C)(O)[C@H]3C[C@@H]12
REMARK SMILES IDX 33 1 32 2 31 3 17 4 15 5 13 6 11 7 12 8 7 9 5 10 4 11 18 12
REMARK SMILES IDX 19 13 20 14 21 15 23 16 24 17 25 18 26 19 27 20 28 21 29 22
REMARK SMILES IDX 14 23 2 25 1 26 3 27 16 28 6 30 30 32 8 34 9 35 10 36 22 39
REMARK H PARENT 14 24 16 29 6 31 30 33 9 37 9 38 22 40
REMARK Flexibility Score: inf
ROOT
ATOM      1  C   UNL     1      12.209  11.494  17.602  1.00  0.00     0.062 C 
ATOM      2  C   UNL     1      12.295  13.048  17.408  1.00  0.00     0.021 C 
ATOM      3  C   UNL     1      13.064  13.495  16.136  1.00  0.00     0.063 C 
ATOM      4  C   UNL     1      12.728  12.564  14.981  1.00  0.00     0.048 C 
ATOM      5  C   UNL     1      12.780  11.224  15.194  1.00  0.00     0.140 C 
ATOM      6  C   UNL     1      13.117  10.731  16.592  1.00  0.00     0.190 C 
ATOM      7  C   UNL     1      12.897   9.241  16.706  1.00  0.00     0.211 C 
ATOM      8  O   UNL     1      13.806   8.465  16.302  1.00  0.00    -0.290 OA
ATOM      9  C   UNL     1      11.609   8.680  17.176  1.00  0.00     0.125 C 
ATOM     10  C   UNL     1      10.581   9.490  17.503  1.00  0.00     0.126 C 
ATOM     11  C   UNL     1      10.725  11.018  17.532  1.00  0.00     0.130 C 
ATOM     12  C   UNL     1      12.149  13.159  13.767  1.00  0.00     0.197 C 
ATOM     13  O   UNL     1      12.403  12.698  12.622  1.00  0.00    -0.289 OA
ATOM     14  C   UNL     1      11.317  14.365  13.920  1.00  0.00     0.072 A 
ATOM     15  C   UNL     1      10.232  14.595  13.053  1.00  0.00     0.127 A 
ATOM     16  C   UNL     1       9.463  15.749  13.194  1.00  0.00     0.048 A 
ATOM     17  C   UNL     1       9.779  16.688  14.170  1.00  0.00     0.025 A 
ATOM     18  C   UNL     1      10.857  16.484  15.037  1.00  0.00     0.048 A 
ATOM     19  Cl  UNL     1      11.231  17.821  16.123  1.00  0.00    -0.084 Cl
ATOM     20  C   UNL     1      11.619  15.282  14.960  1.00  0.00     0.017 A 
ATOM     21  C   UNL     1      12.874  15.028  15.814  1.00  0.00     0.096 C 
ATOM     22  C   UNL     1      14.087  15.561  15.019  1.00  0.00     0.048 C 
ENDROOT
BRANCH   6  23
ATOM     23  O   UNL     1      14.477  11.005  16.847  1.00  0.00    -0.374 OA
ATOM     24  H   UNL     1      14.669  10.772  17.793  1.00  0.00     0.212 HD
ENDBRANCH   6  23
BRANCH  11  25
ATOM     25  N   UNL     1       9.992  11.673  18.653  1.00  0.00    -0.299 NA
ATOM     26  C   UNL     1      10.018  10.984  19.955  1.00  0.00     0.105 C 
ATOM     27  C   UNL     1       8.664  12.198  18.299  1.00  0.00     0.105 C 
ENDBRANCH  11  25
BRANCH   5  28
ATOM     28  O   UNL     1      12.447  10.280  14.215  1.00  0.00    -0.508 OA
ATOM     29  H   UNL     1      11.662   9.649  14.261  1.00  0.00     0.293 HD
ENDBRANCH   5  28
BRANCH  10  30
ATOM     30  O   UNL     1       9.339   8.904  17.749  1.00  0.00    -0.510 OA
ATOM     31  H   UNL     1       8.999   8.096  17.251  1.00  0.00     0.293 HD
ENDBRANCH  10  30
BRANCH  21  32
ATOM     32  O   UNL     1      12.788  15.736  17.029  1.00  0.00    -0.385 OA
ATOM     33  H   UNL     1      13.694  16.078  17.256  1.00  0.00     0.211 HD
ENDBRANCH  21  32
BRANCH   9  34
ATOM     34  C   UNL     1      11.449   7.202  17.210  1.00  0.00     0.255 C 
ATOM     35  N   UNL     1      12.196   6.411  18.135  1.00  0.00    -0.365 N 
ATOM     36  O   UNL     1      10.648   6.632  16.421  1.00  0.00    -0.269 OA
ATOM     37  H   UNL     1      12.096   5.373  18.139  1.00  0.00     0.159 HD
ATOM     38  H   UNL     1      12.783   6.861  18.871  1.00  0.00     0.159 HD
ENDBRANCH   9  34
BRANCH  15  39
ATOM     39  O   UNL     1       9.911  13.667  12.060  1.00  0.00    -0.507 OA
ATOM     40  H   UNL     1       9.426  13.940  11.214  1.00  0.00     0.293 HD
ENDBRANCH  15  39
TORSDOF 7
ENDMDL
MODEL 12
REMARK VINA RESULT:    -7.859      2.700      3.905
REMARK INTER + INTRA:         -10.160
REMARK INTER:                  -9.445
REMARK INTRA:                  -0.715
REMARK UNBOUND:                -0.233
REMARK SMILES CN(C)[C@@H]1C(O)=C(C(N)=O)C(=O)[C@@]2(O)C(O)=C3C(=O)c4c(O)ccc(Cl)c4[C@@](C)(O)[C@H]3C[C@@H]12
REMARK SMILES IDX 33 1 32 2 31 3 17 4 15 5 13 6 11 7 12 8 7 9 5 10 4 11 18 12
REMARK SMILES IDX 19 13 20 14 21 15 23 16 24 17 25 18 26 19 27 20 28 21 29 22
REMARK SMILES IDX 14 23 2 25 1 26 3 27 16 28 6 30 30 32 8 34 9 35 10 36 22 39
REMARK H PARENT 14 24 16 29 6 31 30 33 9 37 9 38 22 40
REMARK Flexibility Score: inf
ROOT
ATOM      1  C   UNL     1      12.582  11.353  16.349  1.00  0.00     0.062 C 
ATOM      2  C   UNL     1      12.906  12.152  15.038  1.00  0.00     0.021 C 
ATOM      3  C   UNL     1      11.681  12.405  14.120  1.00  0.00     0.063 C 
ATOM      4  C   UNL     1      10.462  12.728  14.970  1.00  0.00     0.048 C 
ATOM      5  C   UNL     1      10.181  11.926  16.029  1.00  0.00     0.140 C 
ATOM      6  C   UNL     1      11.133  10.782  16.338  1.00  0.00     0.190 C 
ATOM      7  C   UNL     1      10.804  10.151  17.670  1.00  0.00     0.211 C 
ATOM      8  O   UNL     1       9.885   9.289  17.718  1.00  0.00    -0.290 OA
ATOM      9  C   UNL     1      11.458  10.596  18.922  1.00  0.00     0.125 C 
ATOM     10  C   UNL     1      12.362  11.599  18.912  1.00  0.00     0.126 C 
ATOM     11  C   UNL     1      12.854  12.237  17.605  1.00  0.00     0.130 C 
ATOM     12  C   UNL     1       9.786  14.013  14.739  1.00  0.00     0.197 C 
ATOM     13  O   UNL     1       8.538  14.133  14.864  1.00  0.00    -0.289 OA
ATOM     14  C   UNL     1      10.604  15.150  14.281  1.00  0.00     0.072 A 
ATOM     15  C   UNL     1      10.279  16.463  14.671  1.00  0.00     0.127 A 
ATOM     16  C   UNL     1      11.048  17.533  14.215  1.00  0.00     0.048 A 
ATOM     17  C   UNL     1      12.119  17.312  13.356  1.00  0.00     0.025 A 
ATOM     18  C   UNL     1      12.455  16.017  12.949  1.00  0.00     0.048 A 
ATOM     19  Cl  UNL     1      13.737  15.899  11.746  1.00  0.00    -0.084 Cl
ATOM     20  C   UNL     1      11.729  14.898  13.453  1.00  0.00     0.017 A 
ATOM     21  C   UNL     1      11.976  13.455  12.980  1.00  0.00     0.096 C 
ATOM     22  C   UNL     1      11.052  13.201  11.767  1.00  0.00     0.048 C 
ENDROOT
BRANCH   6  23
ATOM     23  O   UNL     1      10.997   9.804  15.331  1.00  0.00    -0.374 OA
ATOM     24  H   UNL     1      10.267   9.184  15.596  1.00  0.00     0.212 HD
ENDBRANCH   6  23
BRANCH  11  25
ATOM     25  N   UNL     1      14.306  12.576  17.608  1.00  0.00    -0.299 NA
ATOM     26  C   UNL     1      15.235  11.509  18.021  1.00  0.00     0.105 C 
ATOM     27  C   UNL     1      14.634  13.888  18.186  1.00  0.00     0.105 C 
ENDBRANCH  11  25
BRANCH   5  28
ATOM     28  O   UNL     1       9.111  12.158  16.903  1.00  0.00    -0.508 OA
ATOM     29  H   UNL     1       8.458  11.457  17.218  1.00  0.00     0.293 HD
ENDBRANCH   5  28
BRANCH  10  30
ATOM     30  O   UNL     1      12.795  12.103  20.139  1.00  0.00    -0.510 OA
ATOM     31  H   UNL     1      13.245  12.998  20.243  1.00  0.00     0.293 HD
ENDBRANCH  10  30
BRANCH  21  32
ATOM     32  O   UNL     1      13.314  13.301  12.563  1.00  0.00    -0.385 OA
ATOM     33  H   UNL     1      13.467  13.895  11.780  1.00  0.00     0.211 HD
ENDBRANCH  21  32
BRANCH   9  34
ATOM     34  C   UNL     1      11.044   9.965  20.203  1.00  0.00     0.255 C 
ATOM     35  N   UNL     1       9.676   9.979  20.611  1.00  0.00    -0.365 N 
ATOM     36  O   UNL     1      11.899   9.405  20.940  1.00  0.00    -0.269 OA
ATOM     37  H   UNL     1       9.394   9.554  21.522  1.00  0.00     0.159 HD
ATOM     38  H   UNL     1       8.931  10.336  19.973  1.00  0.00     0.159 HD
ENDBRANCH   9  34
BRANCH  15  39
ATOM     39  O   UNL     1       9.199  16.702  15.523  1.00  0.00    -0.507 OA
ATOM     40  H   UNL     1       9.333  16.970  16.489  1.00  0.00     0.293 HD
ENDBRANCH  15  39
TORSDOF 7
ENDMDL
MODEL 13
REMARK VINA RESULT:    -7.734      3.584      7.467
REMARK INTER + INTRA:         -10.001
REMARK INTER:                  -9.296
REMARK INTRA:                  -0.705
REMARK UNBOUND:                -0.233
REMARK SMILES CN(C)[C@@H]1C(O)=C(C(N)=O)C(=O)[C@@]2(O)C(O)=C3C(=O)c4c(O)ccc(Cl)c4[C@@](C)(O)[C@H]3C[C@@H]12
REMARK SMILES IDX 33 1 32 2 31 3 17 4 15 5 13 6 11 7 12 8 7 9 5 10 4 11 18 12
REMARK SMILES IDX 19 13 20 14 21 15 23 16 24 17 25 18 26 19 27 20 28 21 29 22
REMARK SMILES IDX 14 23 2 25 1 26 3 27 16 28 6 30 30 32 8 34 9 35 10 36 22 39
REMARK H PARENT 14 24 16 29 6 31 30 33 9 37 9 38 22 40
REMARK Flexibility Score: inf
ROOT
ATOM      1  C   UNL     1      11.713  14.546  15.250  1.00  0.00     0.062 C 
ATOM      2  C   UNL     1      11.478  13.830  16.626  1.00  0.00     0.021 C 
ATOM      3  C   UNL     1      10.732  12.473  16.527  1.00  0.00     0.063 C 
ATOM      4  C   UNL     1      11.219  11.710  15.304  1.00  0.00     0.048 C 
ATOM      5  C   UNL     1      11.294  12.369  14.118  1.00  0.00     0.140 C 
ATOM      6  C   UNL     1      10.940  13.846  14.092  1.00  0.00     0.190 C 
ATOM      7  C   UNL     1      11.306  14.465  12.765  1.00  0.00     0.211 C 
ATOM      8  O   UNL     1      10.503  14.341  11.800  1.00  0.00    -0.290 OA
ATOM      9  C   UNL     1      12.619  15.115  12.546  1.00  0.00     0.125 C 
ATOM     10  C   UNL     1      13.541  15.157  13.530  1.00  0.00     0.126 C 
ATOM     11  C   UNL     1      13.240  14.660  14.951  1.00  0.00     0.130 C 
ATOM     12  C   UNL     1      11.794  10.373  15.515  1.00  0.00     0.197 C 
ATOM     13  O   UNL     1      11.647   9.452  14.667  1.00  0.00    -0.289 OA
ATOM     14  C   UNL     1      12.490  10.115  16.787  1.00  0.00     0.072 A 
ATOM     15  C   UNL     1      13.588   9.234  16.831  1.00  0.00     0.127 A 
ATOM     16  C   UNL     1      14.226   8.981  18.044  1.00  0.00     0.048 A 
ATOM     17  C   UNL     1      13.767   9.573  19.216  1.00  0.00     0.025 A 
ATOM     18  C   UNL     1      12.674  10.444  19.197  1.00  0.00     0.048 A 
ATOM     19  Cl  UNL     1      12.111  11.003  20.770  1.00  0.00    -0.084 Cl
ATOM     20  C   UNL     1      12.044  10.775  17.961  1.00  0.00     0.017 A 
ATOM     21  C   UNL     1      10.781  11.648  17.870  1.00  0.00     0.096 C 
ATOM     22  C   UNL     1       9.560  10.704  17.962  1.00  0.00     0.048 C 
ENDROOT
BRANCH   6  23
ATOM     23  O   UNL     1       9.548  13.975  14.281  1.00  0.00    -0.374 OA
ATOM     24  H   UNL     1       9.375  14.845  14.729  1.00  0.00     0.212 HD
ENDBRANCH   6  23
BRANCH  11  25
ATOM     25  N   UNL     1      13.844  15.499  16.025  1.00  0.00    -0.299 NA
ATOM     26  C   UNL     1      13.709  16.958  15.883  1.00  0.00     0.105 C 
ATOM     27  C   UNL     1      15.188  15.078  16.454  1.00  0.00     0.105 C 
ENDBRANCH  11  25
BRANCH   5  28
ATOM     28  O   UNL     1      11.771  11.775  12.943  1.00  0.00    -0.508 OA
ATOM     29  H   UNL     1      12.001  10.799  12.839  1.00  0.00     0.293 HD
ENDBRANCH   5  28
BRANCH  10  30
ATOM     30  O   UNL     1      14.823  15.604  13.207  1.00  0.00    -0.510 OA
ATOM     31  H   UNL     1      15.584  15.631  13.867  1.00  0.00     0.293 HD
ENDBRANCH  10  30
BRANCH  21  32
ATOM     32  O   UNL     1      10.732  12.549  18.953  1.00  0.00    -0.385 OA
ATOM     33  H   UNL     1      11.639  12.938  19.077  1.00  0.00     0.211 HD
ENDBRANCH  21  32
BRANCH   9  34
ATOM     34  C   UNL     1      12.927  15.654  11.195  1.00  0.00     0.255 C 
ATOM     35  N   UNL     1      12.126  16.689  10.625  1.00  0.00    -0.365 N 
ATOM     36  O   UNL     1      13.905  15.203  10.540  1.00  0.00    -0.269 OA
ATOM     37  H   UNL     1      12.334  17.049   9.668  1.00  0.00     0.159 HD
ATOM     38  H   UNL     1      11.379  17.157  11.185  1.00  0.00     0.159 HD
ENDBRANCH   9  34
BRANCH  15  39
ATOM     39  O   UNL     1      14.052   8.622  15.665  1.00  0.00    -0.507 OA
ATOM     40  H   UNL     1      13.816   7.665  15.437  1.00  0.00     0.293 HD
ENDBRANCH  15  39
TORSDOF 7
ENDMDL
MODEL 14
REMARK VINA RESULT:    -7.689      3.836      7.928
REMARK INTER + INTRA:          -9.944
REMARK INTER:                  -9.266
REMARK INTRA:                  -0.678
REMARK UNBOUND:                -0.233
REMARK SMILES CN(C)[C@@H]1C(O)=C(C(N)=O)C(=O)[C@@]2(O)C(O)=C3C(=O)c4c(O)ccc(Cl)c4[C@@](C)(O)[C@H]3C[C@@H]12
REMARK SMILES IDX 33 1 32 2 31 3 17 4 15 5 13 6 11 7 12 8 7 9 5 10 4 11 18 12
REMARK SMILES IDX 19 13 20 14 21 15 23 16 24 17 25 18 26 19 27 20 28 21 29 22
REMARK SMILES IDX 14 23 2 25 1 26 3 27 16 28 6 30 30 32 8 34 9 35 10 36 22 39
REMARK H PARENT 14 24 16 29 6 31 30 33 9 37 9 38 22 40
REMARK Flexibility Score: inf
ROOT
ATOM      1  C   UNL     1      11.264  15.142  14.948  1.00  0.00     0.062 C 
ATOM      2  C   UNL     1      12.451  14.639  15.842  1.00  0.00     0.021 C 
ATOM      3  C   UNL     1      12.021  14.072  17.221  1.00  0.00     0.063 C 
ATOM      4  C   UNL     1      10.740  13.265  17.067  1.00  0.00     0.048 C 
ATOM      5  C   UNL     1       9.712  13.812  16.368  1.00  0.00     0.140 C 
ATOM      6  C   UNL     1       9.919  15.177  15.733  1.00  0.00     0.190 C 
ATOM      7  C   UNL     1       8.777  15.520  14.807  1.00  0.00     0.211 C 
ATOM      8  O   UNL     1       7.722  16.003  15.303  1.00  0.00    -0.290 OA
ATOM      9  C   UNL     1       8.828  15.205  13.360  1.00  0.00     0.125 C 
ATOM     10  C   UNL     1       9.899  14.582  12.826  1.00  0.00     0.126 C 
ATOM     11  C   UNL     1      11.162  14.286  13.648  1.00  0.00     0.130 C 
ATOM     12  C   UNL     1      10.764  11.855  17.484  1.00  0.00     0.197 C 
ATOM     13  O   UNL     1       9.751  11.301  17.988  1.00  0.00    -0.289 OA
ATOM     14  C   UNL     1      12.037  11.123  17.366  1.00  0.00     0.072 A 
ATOM     15  C   UNL     1      12.039   9.746  17.071  1.00  0.00     0.127 A 
ATOM     16  C   UNL     1      13.249   9.058  16.981  1.00  0.00     0.048 A 
ATOM     17  C   UNL     1      14.451   9.719  17.208  1.00  0.00     0.025 A 
ATOM     18  C   UNL     1      14.471  11.084  17.510  1.00  0.00     0.048 A 
ATOM     19  Cl  UNL     1      16.048  11.756  17.919  1.00  0.00    -0.084 Cl
ATOM     20  C   UNL     1      13.255  11.828  17.542  1.00  0.00     0.017 A 
ATOM     21  C   UNL     1      13.187  13.307  17.959  1.00  0.00     0.096 C 
ATOM     22  C   UNL     1      12.968  13.346  19.488  1.00  0.00     0.048 C 
ENDROOT
BRANCH   6  23
ATOM     23  O   UNL     1       9.972  16.143  16.759  1.00  0.00    -0.374 OA
ATOM     24  H   UNL     1      10.126  17.031  16.341  1.00  0.00     0.212 HD
ENDBRANCH   6  23
BRANCH  11  25
ATOM     25  N   UNL     1      12.433  14.471  12.890  1.00  0.00    -0.299 NA
ATOM     26  C   UNL     1      12.536  15.678  12.053  1.00  0.00     0.105 C 
ATOM     27  C   UNL     1      12.938  13.258  12.227  1.00  0.00     0.105 C 
ENDBRANCH  11  25
BRANCH   5  28
ATOM     28  O   UNL     1       8.507  13.139  16.128  1.00  0.00    -0.508 OA
ATOM     29  H   UNL     1       8.423  12.151  15.942  1.00  0.00     0.293 HD
ENDBRANCH   5  28
BRANCH  10  30
ATOM     30  O   UNL     1       9.808  14.139  11.506  1.00  0.00    -0.510 OA
ATOM     31  H   UNL     1       9.255  14.603  10.803  1.00  0.00     0.293 HD
ENDBRANCH  10  30
BRANCH  21  32
ATOM     32  O   UNL     1      14.405  13.953  17.665  1.00  0.00    -0.385 OA
ATOM     33  H   UNL     1      14.199  14.861  17.313  1.00  0.00     0.211 HD
ENDBRANCH  21  32
BRANCH   9  34
ATOM     34  C   UNL     1       7.643  15.524  12.522  1.00  0.00     0.255 C 
ATOM     35  N   UNL     1       7.100  16.845  12.503  1.00  0.00    -0.365 N 
ATOM     36  O   UNL     1       7.106  14.629  11.815  1.00  0.00    -0.269 OA
ATOM     37  H   UNL     1       6.254  17.058  11.930  1.00  0.00     0.159 HD
ATOM     38  H   UNL     1       7.586  17.630  12.990  1.00  0.00     0.159 HD
ENDBRANCH   9  34
BRANCH  15  39
ATOM     39  O   UNL     1      10.839   9.066  16.853  1.00  0.00    -0.507 OA
ATOM     40  H   UNL     1       9.962   9.558  16.741  1.00  0.00     0.293 HD
ENDBRANCH  15  39
TORSDOF 7
ENDMDL
MODEL 15
REMARK VINA RESULT:    -7.546      3.661      7.536
REMARK INTER + INTRA:          -9.765
REMARK INTER:                  -9.152
REMARK INTRA:                  -0.613
REMARK UNBOUND:                -0.233
REMARK SMILES CN(C)[C@@H]1C(O)=C(C(N)=O)C(=O)[C@@]2(O)C(O)=C3C(=O)c4c(O)ccc(Cl)c4[C@@](C)(O)[C@H]3C[C@@H]12
REMARK SMILES IDX 33 1 32 2 31 3 17 4 15 5 13 6 11 7 12 8 7 9 5 10 4 11 18 12
REMARK SMILES IDX 19 13 20 14 21 15 23 16 24 17 25 18 26 19 27 20 28 21 29 22
REMARK SMILES IDX 14 23 2 25 1 26 3 27 16 28 6 30 30 32 8 34 9 35 10 36 22 39
REMARK H PARENT 14 24 16 29 6 31 30 33 9 37 9 38 22 40
REMARK Flexibility Score: inf
ROOT
ATOM      1  C   UNL     1      10.400  14.793  17.018  1.00  0.00     0.062 C 
ATOM      2  C   UNL     1      11.687  13.959  17.346  1.00  0.00     0.021 C 
ATOM      3  C   UNL     1      11.691  13.308  18.755  1.00  0.00     0.063 C 
ATOM      4  C   UNL     1      10.299  12.789  19.082  1.00  0.00     0.048 C 
ATOM      5  C   UNL     1       9.237  13.609  18.874  1.00  0.00     0.140 C 
ATOM      6  C   UNL     1       9.494  14.981  18.273  1.00  0.00     0.190 C 
ATOM      7  C   UNL     1       8.198  15.655  17.891  1.00  0.00     0.211 C 
ATOM      8  O   UNL     1       7.547  16.261  18.787  1.00  0.00    -0.290 OA
ATOM      9  C   UNL     1       7.628  15.530  16.530  1.00  0.00     0.125 C 
ATOM     10  C   UNL     1       8.248  14.789  15.587  1.00  0.00     0.126 C 
ATOM     11  C   UNL     1       9.624  14.151  15.827  1.00  0.00     0.130 C 
ATOM     12  C   UNL     1      10.157  11.358  19.390  1.00  0.00     0.197 C 
ATOM     13  O   UNL     1       9.309  10.946  20.227  1.00  0.00    -0.289 OA
ATOM     14  C   UNL     1      11.088  10.417  18.744  1.00  0.00     0.072 A 
ATOM     15  C   UNL     1      10.667   9.117  18.409  1.00  0.00     0.127 A 
ATOM     16  C   UNL     1      11.563   8.228  17.816  1.00  0.00     0.048 A 
ATOM     17  C   UNL     1      12.878   8.612  17.579  1.00  0.00     0.025 A 
ATOM     18  C   UNL     1      13.321   9.895  17.912  1.00  0.00     0.048 A 
ATOM     19  Cl  UNL     1      15.044  10.194  17.693  1.00  0.00    -0.084 Cl
ATOM     20  C   UNL     1      12.409  10.847  18.456  1.00  0.00     0.017 A 
ATOM     21  C   UNL     1      12.841  12.244  18.934  1.00  0.00     0.096 C 
ATOM     22  C   UNL     1      13.228  12.122  20.426  1.00  0.00     0.048 C 
ENDROOT
BRANCH   6  23
ATOM     23  O   UNL     1      10.148  15.776  19.237  1.00  0.00    -0.374 OA
ATOM     24  H   UNL     1       9.522  16.491  19.527  1.00  0.00     0.212 HD
ENDBRANCH   6  23
BRANCH  11  25
ATOM     25  N   UNL     1      10.523  14.188  14.637  1.00  0.00    -0.299 NA
ATOM     26  C   UNL     1      10.493  15.414  13.821  1.00  0.00     0.105 C 
ATOM     27  C   UNL     1      10.536  12.955  13.835  1.00  0.00     0.105 C 
ENDBRANCH  11  25
BRANCH   5  28
ATOM     28  O   UNL     1       7.911  13.217  19.099  1.00  0.00    -0.508 OA
ATOM     29  H   UNL     1       7.101  13.797  18.944  1.00  0.00     0.293 HD
ENDBRANCH   5  28
BRANCH  10  30
ATOM     30  O   UNL     1       7.569  14.549  14.392  1.00  0.00    -0.510 OA
ATOM     31  H   UNL     1       7.620  15.162  13.593  1.00  0.00     0.293 HD
ENDBRANCH  10  30
BRANCH  21  32
ATOM     32  O   UNL     1      13.972  12.679  18.213  1.00  0.00    -0.385 OA
ATOM     33  H   UNL     1      14.742  12.728  18.840  1.00  0.00     0.211 HD
ENDBRANCH  21  32
BRANCH   9  34
ATOM     34  C   UNL     1       6.321  16.177  16.245  1.00  0.00     0.255 C 
ATOM     35  N   UNL     1       6.094  17.542  16.598  1.00  0.00    -0.365 N 
ATOM     36  O   UNL     1       5.399  15.526  15.684  1.00  0.00    -0.269 OA
ATOM     37  H   UNL     1       5.166  17.985  16.415  1.00  0.00     0.159 HD
ATOM     38  H   UNL     1       6.870  18.137  16.962  1.00  0.00     0.159 HD
ENDBRANCH   9  34
BRANCH  15  39
ATOM     39  O   UNL     1       9.352   8.713  18.652  1.00  0.00    -0.507 OA
ATOM     40  H   UNL     1       9.004   7.817  18.337  1.00  0.00     0.293 HD
ENDBRANCH  15  39
TORSDOF 7
ENDMDL
