MODEL 1
REMARK VINA RESULT:    -7.501      0.000      0.000
REMARK INTER + INTRA:         -11.309
REMARK INTER:                  -9.693
REMARK INTRA:                  -1.616
REMARK UNBOUND:                -1.616
REMARK SMILES O=C(OOC(=O)c1ccccc1)c1ccccc1
REMARK SMILES IDX 3 1 2 2 1 3 13 4 14 5 18 6 15 7 17 8 16 9 4 10 5 11 6 12
REMARK SMILES IDX 7 13 8 14 12 15 9 16 11 17 10 18
REMARK H PARENT
REMARK Flexibility Score: inf
ROOT
ATOM      1  O   UNL     1      10.681   8.559  16.905  1.00  0.00    -0.242 OA
ENDROOT
BRANCH   1   2
ATOM      2  C   UNL     1      10.567   8.821  18.269  1.00  0.00     0.386 C 
ATOM      3  O   UNL     1       9.430   9.049  18.766  1.00  0.00    -0.242 OA
BRANCH   2   4
ATOM      4  C   UNL     1      11.773   8.831  19.126  1.00  0.00     0.064 A 
ATOM      5  C   UNL     1      12.637   7.722  19.149  1.00  0.00     0.016 A 
ATOM      6  C   UNL     1      12.074   9.947  19.930  1.00  0.00     0.016 A 
ATOM      7  C   UNL     1      13.777   7.729  19.958  1.00  0.00     0.001 A 
ATOM      8  C   UNL     1      13.216   9.949  20.738  1.00  0.00     0.001 A 
ATOM      9  C   UNL     1      14.066   8.841  20.752  1.00  0.00     0.000 A 
ENDBRANCH   2   4
ENDBRANCH   1   2
BRANCH   1  10
ATOM     10  O   UNL     1      11.071   9.536  16.038  1.00  0.00    -0.242 OA
BRANCH  10  11
ATOM     11  C   UNL     1      12.407   9.661  15.659  1.00  0.00     0.386 C 
ATOM     12  O   UNL     1      12.845   8.984  14.689  1.00  0.00    -0.242 OA
BRANCH  11  13
ATOM     13  C   UNL     1      13.303  10.580  16.394  1.00  0.00     0.064 A 
ATOM     14  C   UNL     1      13.056  11.964  16.395  1.00  0.00     0.016 A 
ATOM     15  C   UNL     1      14.416  10.086  17.103  1.00  0.00     0.016 A 
ATOM     16  C   UNL     1      13.902  12.834  17.089  1.00  0.00     0.001 A 
ATOM     17  C   UNL     1      15.259  10.961  17.795  1.00  0.00     0.001 A 
ATOM     18  C   UNL     1      15.002  12.334  17.788  1.00  0.00     0.000 A 
ENDBRANCH  11  13
ENDBRANCH  10  11
ENDBRANCH   1  10
TORSDOF 5
ENDMDL
MODEL 2
REMARK VINA RESULT:    -7.487      0.183      1.154
REMARK INTER + INTRA:         -11.291
REMARK INTER:                  -9.603
REMARK INTRA:                  -1.688
REMARK UNBOUND:                -1.616
REMARK SMILES O=C(OOC(=O)c1ccccc1)c1ccccc1
REMARK SMILES IDX 3 1 2 2 1 3 13 4 14 5 18 6 15 7 17 8 16 9 4 10 5 11 6 12
REMARK SMILES IDX 7 13 8 14 12 15 9 16 11 17 10 18
REMARK H PARENT
REMARK Flexibility Score: inf
ROOT
ATOM      1  O   UNL     1      10.705   8.537  16.956  1.00  0.00    -0.242 OA
ENDROOT
BRANCH   1   2
ATOM      2  C   UNL     1      10.526   8.855  18.301  1.00  0.00     0.386 C 
ATOM      3  O   UNL     1       9.362   9.055  18.744  1.00  0.00    -0.242 OA
BRANCH   2   4
ATOM      4  C   UNL     1      11.696   8.957  19.201  1.00  0.00     0.064 A 
ATOM      5  C   UNL     1      11.928  10.135  19.933  1.00  0.00     0.016 A 
ATOM      6  C   UNL     1      12.593   7.880  19.341  1.00  0.00     0.016 A 
ATOM      7  C   UNL     1      13.033  10.234  20.784  1.00  0.00     0.001 A 
ATOM      8  C   UNL     1      13.696   7.984  20.194  1.00  0.00     0.001 A 
ATOM      9  C   UNL     1      13.916   9.160  20.915  1.00  0.00     0.000 A 
ENDBRANCH   2   4
ENDBRANCH   1   2
BRANCH   1  10
ATOM     10  O   UNL     1      11.091   9.488  16.060  1.00  0.00    -0.242 OA
BRANCH  10  11
ATOM     11  C   UNL     1      12.426   9.609  15.679  1.00  0.00     0.386 C 
ATOM     12  O   UNL     1      12.859   8.934  14.705  1.00  0.00    -0.242 OA
BRANCH  11  13
ATOM     13  C   UNL     1      13.328  10.522  16.414  1.00  0.00     0.064 A 
ATOM     14  C   UNL     1      13.107  11.911  16.389  1.00  0.00     0.016 A 
ATOM     15  C   UNL     1      14.419  10.018  17.150  1.00  0.00     0.016 A 
ATOM     16  C   UNL     1      13.959  12.776  17.084  1.00  0.00     0.001 A 
ATOM     17  C   UNL     1      15.267  10.888  17.842  1.00  0.00     0.001 A 
ATOM     18  C   UNL     1      15.037  12.265  17.809  1.00  0.00     0.000 A 
ENDBRANCH  11  13
ENDBRANCH  10  11
ENDBRANCH   1  10
TORSDOF 5
ENDMDL
MODEL 3
REMARK VINA RESULT:    -7.482      0.393      3.952
REMARK INTER + INTRA:         -11.284
REMARK INTER:                  -9.430
REMARK INTRA:                  -1.854
REMARK UNBOUND:                -1.616
REMARK SMILES O=C(OOC(=O)c1ccccc1)c1ccccc1
REMARK SMILES IDX 3 1 2 2 1 3 13 4 14 5 18 6 15 7 17 8 16 9 4 10 5 11 6 12
REMARK SMILES IDX 7 13 8 14 12 15 9 16 11 17 10 18
REMARK H PARENT
REMARK Flexibility Score: inf
ROOT
ATOM      1  O   UNL     1      10.989   9.413  16.097  1.00  0.00    -0.242 OA
ENDROOT
BRANCH   1   2
ATOM      2  C   UNL     1      12.298   9.599  15.653  1.00  0.00     0.386 C 
ATOM      3  O   UNL     1      12.708   8.965  14.642  1.00  0.00    -0.242 OA
BRANCH   2   4
ATOM      4  C   UNL     1      13.197  10.533  16.365  1.00  0.00     0.064 A 
ATOM      5  C   UNL     1      14.330  10.049  17.043  1.00  0.00     0.016 A 
ATOM      6  C   UNL     1      12.935  11.917  16.376  1.00  0.00     0.016 A 
ATOM      7  C   UNL     1      15.182  10.929  17.717  1.00  0.00     0.001 A 
ATOM      8  C   UNL     1      13.791  12.793  17.051  1.00  0.00     0.001 A 
ATOM      9  C   UNL     1      14.913  12.300  17.721  1.00  0.00     0.000 A 
ENDBRANCH   2   4
ENDBRANCH   1   2
BRANCH   1  10
ATOM     10  O   UNL     1      10.708   8.514  17.081  1.00  0.00    -0.242 OA
BRANCH  10  11
ATOM     11  C   UNL     1      10.496   8.937  18.393  1.00  0.00     0.386 C 
ATOM     12  O   UNL     1       9.317   9.095  18.813  1.00  0.00    -0.242 OA
BRANCH  11  13
ATOM     13  C   UNL     1      11.648   9.198  19.283  1.00  0.00     0.064 A 
ATOM     14  C   UNL     1      11.823  10.466  19.866  1.00  0.00     0.016 A 
ATOM     15  C   UNL     1      12.587   8.185  19.561  1.00  0.00     0.016 A 
ATOM     16  C   UNL     1      12.911  10.715  20.707  1.00  0.00     0.001 A 
ATOM     17  C   UNL     1      13.674   8.439  20.403  1.00  0.00     0.001 A 
ATOM     18  C   UNL     1      13.836   9.703  20.976  1.00  0.00     0.000 A 
ENDBRANCH  11  13
ENDBRANCH  10  11
ENDBRANCH   1  10
TORSDOF 5
ENDMDL
MODEL 4
REMARK VINA RESULT:    -7.471      0.435      4.217
REMARK INTER + INTRA:         -11.270
REMARK INTER:                  -9.429
REMARK INTRA:                  -1.842
REMARK UNBOUND:                -1.616
REMARK SMILES O=C(OOC(=O)c1ccccc1)c1ccccc1
REMARK SMILES IDX 3 1 2 2 1 3 13 4 14 5 18 6 15 7 17 8 16 9 4 10 5 11 6 12
REMARK SMILES IDX 7 13 8 14 12 15 9 16 11 17 10 18
REMARK H PARENT
REMARK Flexibility Score: inf
ROOT
ATOM      1  O   UNL     1      11.020   9.469  16.053  1.00  0.00    -0.242 OA
ENDROOT
BRANCH   1   2
ATOM      2  C   UNL     1      12.342   9.636  15.644  1.00  0.00     0.386 C 
ATOM      3  O   UNL     1      12.788   8.949  14.685  1.00  0.00    -0.242 OA
BRANCH   2   4
ATOM      4  C   UNL     1      13.214  10.612  16.333  1.00  0.00     0.064 A 
ATOM      5  C   UNL     1      12.916  11.986  16.287  1.00  0.00     0.016 A 
ATOM      6  C   UNL     1      14.354  10.185  17.041  1.00  0.00     0.016 A 
ATOM      7  C   UNL     1      13.739  12.911  16.937  1.00  0.00     0.001 A 
ATOM      8  C   UNL     1      15.173  11.114  17.689  1.00  0.00     0.001 A 
ATOM      9  C   UNL     1      14.866  12.476  17.637  1.00  0.00     0.000 A 
ENDBRANCH   2   4
ENDBRANCH   1   2
BRANCH   1  10
ATOM     10  O   UNL     1      10.698   8.567  17.022  1.00  0.00    -0.242 OA
BRANCH  10  11
ATOM     11  C   UNL     1      10.465   8.981  18.333  1.00  0.00     0.386 C 
ATOM     12  O   UNL     1       9.279   9.080  18.752  1.00  0.00    -0.242 OA
BRANCH  11  13
ATOM     13  C   UNL     1      11.601   9.304  19.222  1.00  0.00     0.064 A 
ATOM     14  C   UNL     1      12.573   8.331  19.516  1.00  0.00     0.016 A 
ATOM     15  C   UNL     1      11.730  10.588  19.789  1.00  0.00     0.016 A 
ATOM     16  C   UNL     1      13.648   8.634  20.357  1.00  0.00     0.001 A 
ATOM     17  C   UNL     1      12.807  10.885  20.629  1.00  0.00     0.001 A 
ATOM     18  C   UNL     1      13.765   9.909  20.913  1.00  0.00     0.000 A 
ENDBRANCH  11  13
ENDBRANCH  10  11
ENDBRANCH   1  10
TORSDOF 5
ENDMDL
MODEL 5
REMARK VINA RESULT:    -7.297      2.759      3.845
REMARK INTER + INTRA:         -11.046
REMARK INTER:                  -8.941
REMARK INTRA:                  -2.105
REMARK UNBOUND:                -1.616
REMARK SMILES O=C(OOC(=O)c1ccccc1)c1ccccc1
REMARK SMILES IDX 3 1 2 2 1 3 13 4 14 5 18 6 15 7 17 8 16 9 4 10 5 11 6 12
REMARK SMILES IDX 7 13 8 14 12 15 9 16 11 17 10 18
REMARK H PARENT
REMARK Flexibility Score: inf
ROOT
ATOM      1  O   UNL     1      13.849  11.710  20.103  1.00  0.00    -0.242 OA
ENDROOT
BRANCH   1   2
ATOM      2  C   UNL     1      12.634  11.139  20.477  1.00  0.00     0.386 C 
ATOM      3  O   UNL     1      12.407  10.899  21.695  1.00  0.00    -0.242 OA
BRANCH   2   4
ATOM      4  C   UNL     1      11.619  10.816  19.451  1.00  0.00     0.064 A 
ATOM      5  C   UNL     1      11.371   9.479  19.092  1.00  0.00     0.016 A 
ATOM      6  C   UNL     1      10.885  11.839  18.817  1.00  0.00     0.016 A 
ATOM      7  C   UNL     1      10.413   9.172  18.122  1.00  0.00     0.001 A 
ATOM      8  C   UNL     1       9.928  11.526  17.848  1.00  0.00     0.001 A 
ATOM      9  C   UNL     1       9.691  10.193  17.501  1.00  0.00     0.000 A 
ENDBRANCH   2   4
ENDBRANCH   1   2
BRANCH   1  10
ATOM     10  O   UNL     1      14.761  11.000  19.383  1.00  0.00    -0.242 OA
BRANCH  10  11
ATOM     11  C   UNL     1      15.008  11.305  18.045  1.00  0.00     0.386 C 
ATOM     12  O   UNL     1      15.963  12.075  17.748  1.00  0.00    -0.242 OA
BRANCH  11  13
ATOM     13  C   UNL     1      14.154  10.730  16.983  1.00  0.00     0.064 A 
ATOM     14  C   UNL     1      13.336  11.565  16.201  1.00  0.00     0.016 A 
ATOM     15  C   UNL     1      14.144   9.343  16.740  1.00  0.00     0.016 A 
ATOM     16  C   UNL     1      12.527  11.024  15.197  1.00  0.00     0.001 A 
ATOM     17  C   UNL     1      13.333   8.807  15.735  1.00  0.00     0.001 A 
ATOM     18  C   UNL     1      12.525   9.647  14.964  1.00  0.00     0.000 A 
ENDBRANCH  11  13
ENDBRANCH  10  11
ENDBRANCH   1  10
TORSDOF 5
ENDMDL
MODEL 6
REMARK VINA RESULT:    -7.251      2.739      5.056
REMARK INTER + INTRA:         -10.986
REMARK INTER:                  -8.874
REMARK INTRA:                  -2.112
REMARK UNBOUND:                -1.616
REMARK SMILES O=C(OOC(=O)c1ccccc1)c1ccccc1
REMARK SMILES IDX 3 1 2 2 1 3 13 4 14 5 18 6 15 7 17 8 16 9 4 10 5 11 6 12
REMARK SMILES IDX 7 13 8 14 12 15 9 16 11 17 10 18
REMARK H PARENT
REMARK Flexibility Score: inf
ROOT
ATOM      1  O   UNL     1      14.718  10.969  19.329  1.00  0.00    -0.242 OA
ENDROOT
BRANCH   1   2
ATOM      2  C   UNL     1      14.949  11.274  17.989  1.00  0.00     0.386 C 
ATOM      3  O   UNL     1      15.904  12.037  17.679  1.00  0.00    -0.242 OA
BRANCH   2   4
ATOM      4  C   UNL     1      14.077  10.705  16.937  1.00  0.00     0.064 A 
ATOM      5  C   UNL     1      14.020   9.313  16.739  1.00  0.00     0.016 A 
ATOM      6  C   UNL     1      13.294  11.543  16.120  1.00  0.00     0.016 A 
ATOM      7  C   UNL     1      13.197   8.773  15.746  1.00  0.00     0.001 A 
ATOM      8  C   UNL     1      12.473  10.997  15.128  1.00  0.00     0.001 A 
ATOM      9  C   UNL     1      12.425   9.614  14.942  1.00  0.00     0.000 A 
ENDBRANCH   2   4
ENDBRANCH   1   2
BRANCH   1  10
ATOM     10  O   UNL     1      13.833  11.696  20.067  1.00  0.00    -0.242 OA
BRANCH  10  11
ATOM     11  C   UNL     1      12.615  11.147  20.464  1.00  0.00     0.386 C 
ATOM     12  O   UNL     1      12.390  10.951  21.689  1.00  0.00    -0.242 OA
BRANCH  11  13
ATOM     13  C   UNL     1      11.595  10.797  19.451  1.00  0.00     0.064 A 
ATOM     14  C   UNL     1      10.880  11.807  18.783  1.00  0.00     0.016 A 
ATOM     15  C   UNL     1      11.323   9.450  19.140  1.00  0.00     0.016 A 
ATOM     16  C   UNL     1       9.916  11.478  17.826  1.00  0.00     0.001 A 
ATOM     17  C   UNL     1      10.357   9.126  18.182  1.00  0.00     0.001 A 
ATOM     18  C   UNL     1       9.654  10.140  17.526  1.00  0.00     0.000 A 
ENDBRANCH  11  13
ENDBRANCH  10  11
ENDBRANCH   1  10
TORSDOF 5
ENDMDL
MODEL 7
REMARK VINA RESULT:    -7.160      2.117      3.807
REMARK INTER + INTRA:         -10.869
REMARK INTER:                  -8.757
REMARK INTRA:                  -2.111
REMARK UNBOUND:                -1.616
REMARK SMILES O=C(OOC(=O)c1ccccc1)c1ccccc1
REMARK SMILES IDX 3 1 2 2 1 3 13 4 14 5 18 6 15 7 17 8 16 9 4 10 5 11 6 12
REMARK SMILES IDX 7 13 8 14 12 15 9 16 11 17 10 18
REMARK H PARENT
REMARK Flexibility Score: inf
ROOT
ATOM      1  O   UNL     1       9.871  10.261  19.303  1.00  0.00    -0.242 OA
ENDROOT
BRANCH   1   2
ATOM      2  C   UNL     1       9.596   9.727  18.045  1.00  0.00     0.386 C 
ATOM      3  O   UNL     1       8.420   9.366  17.765  1.00  0.00    -0.242 OA
BRANCH   2   4
ATOM      4  C   UNL     1      10.678   9.588  17.046  1.00  0.00     0.064 A 
ATOM      5  C   UNL     1      10.978  10.647  16.171  1.00  0.00     0.016 A 
ATOM      6  C   UNL     1      11.423   8.396  16.954  1.00  0.00     0.016 A 
ATOM      7  C   UNL     1      12.000  10.517  15.225  1.00  0.00     0.001 A 
ATOM      8  C   UNL     1      12.444   8.271  16.006  1.00  0.00     0.001 A 
ATOM      9  C   UNL     1      12.732   9.331  15.143  1.00  0.00     0.000 A 
ENDBRANCH   2   4
ENDBRANCH   1   2
BRANCH   1  10
ATOM     10  O   UNL     1      10.758   9.653  20.139  1.00  0.00    -0.242 OA
BRANCH  10  11
ATOM     11  C   UNL     1      11.936  10.295  20.517  1.00  0.00     0.386 C 
ATOM     12  O   UNL     1      12.142  10.552  21.735  1.00  0.00    -0.242 OA
BRANCH  11  13
ATOM     13  C   UNL     1      12.936  10.675  19.494  1.00  0.00     0.064 A 
ATOM     14  C   UNL     1      12.907  11.955  18.914  1.00  0.00     0.016 A 
ATOM     15  C   UNL     1      13.928   9.763  19.085  1.00  0.00     0.016 A 
ATOM     16  C   UNL     1      13.850  12.316  17.947  1.00  0.00     0.001 A 
ATOM     17  C   UNL     1      14.869  10.128  18.118  1.00  0.00     0.001 A 
ATOM     18  C   UNL     1      14.830  11.404  17.549  1.00  0.00     0.000 A 
ENDBRANCH  11  13
ENDBRANCH  10  11
ENDBRANCH   1  10
TORSDOF 5
ENDMDL
MODEL 8
REMARK VINA RESULT:    -7.155      1.780      3.659
REMARK INTER + INTRA:         -10.862
REMARK INTER:                  -8.998
REMARK INTRA:                  -1.864
REMARK UNBOUND:                -1.616
REMARK SMILES O=C(OOC(=O)c1ccccc1)c1ccccc1
REMARK SMILES IDX 3 1 2 2 1 3 13 4 14 5 18 6 15 7 17 8 16 9 4 10 5 11 6 12
REMARK SMILES IDX 7 13 8 14 12 15 9 16 11 17 10 18
REMARK H PARENT
REMARK Flexibility Score: inf
ROOT
ATOM      1  O   UNL     1      11.080   8.726  18.832  1.00  0.00    -0.242 OA
ENDROOT
BRANCH   1   2
ATOM      2  C   UNL     1      10.390   9.351  17.795  1.00  0.00     0.386 C 
ATOM      3  O   UNL     1       9.169   9.090  17.614  1.00  0.00    -0.242 OA
BRANCH   2   4
ATOM      4  C   UNL     1      11.087  10.313  16.914  1.00  0.00     0.064 A 
ATOM      5  C   UNL     1      11.568   9.904  15.657  1.00  0.00     0.016 A 
ATOM      6  C   UNL     1      11.280  11.649  17.316  1.00  0.00     0.016 A 
ATOM      7  C   UNL     1      12.228  10.811  14.822  1.00  0.00     0.001 A 
ATOM      8  C   UNL     1      11.940  12.552  16.478  1.00  0.00     0.001 A 
ATOM      9  C   UNL     1      12.414  12.133  15.231  1.00  0.00     0.000 A 
ENDBRANCH   2   4
ENDBRANCH   1   2
BRANCH   1  10
ATOM     10  O   UNL     1      12.121   7.887  18.571  1.00  0.00    -0.242 OA
BRANCH  10  11
ATOM     11  C   UNL     1      13.392   8.146  19.084  1.00  0.00     0.386 C 
ATOM     12  O   UNL     1      14.026   7.226  19.669  1.00  0.00    -0.242 OA
BRANCH  11  13
ATOM     13  C   UNL     1      13.988   9.492  18.944  1.00  0.00     0.064 A 
ATOM     14  C   UNL     1      13.977  10.390  20.027  1.00  0.00     0.016 A 
ATOM     15  C   UNL     1      14.574   9.897  17.729  1.00  0.00     0.016 A 
ATOM     16  C   UNL     1      14.539  11.664  19.896  1.00  0.00     0.001 A 
ATOM     17  C   UNL     1      15.135  11.172  17.604  1.00  0.00     0.001 A 
ATOM     18  C   UNL     1      15.117  12.054  18.687  1.00  0.00     0.000 A 
ENDBRANCH  11  13
ENDBRANCH  10  11
ENDBRANCH   1  10
TORSDOF 5
ENDMDL
MODEL 9
REMARK VINA RESULT:    -7.152      2.620      4.262
REMARK INTER + INTRA:         -10.858
REMARK INTER:                  -8.773
REMARK INTRA:                  -2.085
REMARK UNBOUND:                -1.616
REMARK SMILES O=C(OOC(=O)c1ccccc1)c1ccccc1
REMARK SMILES IDX 3 1 2 2 1 3 13 4 14 5 18 6 15 7 17 8 16 9 4 10 5 11 6 12
REMARK SMILES IDX 7 13 8 14 12 15 9 16 11 17 10 18
REMARK H PARENT
REMARK Flexibility Score: inf
ROOT
ATOM      1  O   UNL     1      12.501   8.219  20.702  1.00  0.00    -0.242 OA
ENDROOT
BRANCH   1   2
ATOM      2  C   UNL     1      13.561   7.950  19.839  1.00  0.00     0.386 C 
ATOM      3  O   UNL     1      14.512   7.218  20.229  1.00  0.00    -0.242 OA
BRANCH   2   4
ATOM      4  C   UNL     1      13.570   8.521  18.474  1.00  0.00     0.064 A 
ATOM      5  C   UNL     1      12.837   7.906  17.443  1.00  0.00     0.016 A 
ATOM      6  C   UNL     1      14.310   9.684  18.185  1.00  0.00     0.016 A 
ATOM      7  C   UNL     1      12.844   8.443  16.152  1.00  0.00     0.001 A 
ATOM      8  C   UNL     1      14.314  10.216  16.892  1.00  0.00     0.001 A 
ATOM      9  C   UNL     1      13.581   9.596  15.876  1.00  0.00     0.000 A 
ENDBRANCH   2   4
ENDBRANCH   1   2
BRANCH   1  10
ATOM     10  O   UNL     1      12.143   9.502  20.988  1.00  0.00    -0.242 OA
BRANCH  10  11
ATOM     11  C   UNL     1      10.952  10.036  20.499  1.00  0.00     0.386 C 
ATOM     12  O   UNL     1       9.889   9.902  21.166  1.00  0.00    -0.242 OA
BRANCH  11  13
ATOM     13  C   UNL     1      10.937  10.754  19.206  1.00  0.00     0.064 A 
ATOM     14  C   UNL     1      11.657  11.951  19.049  1.00  0.00     0.016 A 
ATOM     15  C   UNL     1      10.203  10.251  18.113  1.00  0.00     0.016 A 
ATOM     16  C   UNL     1      11.644  12.631  17.827  1.00  0.00     0.001 A 
ATOM     17  C   UNL     1      10.193  10.935  16.893  1.00  0.00     0.001 A 
ATOM     18  C   UNL     1      10.913  12.124  16.750  1.00  0.00     0.000 A 
ENDBRANCH  11  13
ENDBRANCH  10  11
ENDBRANCH   1  10
TORSDOF 5
ENDMDL
MODEL 10
REMARK VINA RESULT:    -7.136      1.830      3.330
REMARK INTER + INTRA:         -10.837
REMARK INTER:                  -9.053
REMARK INTRA:                  -1.784
REMARK UNBOUND:                -1.616
REMARK SMILES O=C(OOC(=O)c1ccccc1)c1ccccc1
REMARK SMILES IDX 3 1 2 2 1 3 13 4 14 5 18 6 15 7 17 8 16 9 4 10 5 11 6 12
REMARK SMILES IDX 7 13 8 14 12 15 9 16 11 17 10 18
REMARK H PARENT
REMARK Flexibility Score: inf
ROOT
ATOM      1  O   UNL     1      12.264   7.822  18.796  1.00  0.00    -0.242 OA
ENDROOT
BRANCH   1   2
ATOM      2  C   UNL     1      13.549   8.120  19.246  1.00  0.00     0.386 C 
ATOM      3  O   UNL     1      14.227   7.229  19.829  1.00  0.00    -0.242 OA
BRANCH   2   4
ATOM      4  C   UNL     1      14.113   9.472  19.041  1.00  0.00     0.064 A 
ATOM      5  C   UNL     1      14.600   9.854  17.778  1.00  0.00     0.016 A 
ATOM      6  C   UNL     1      14.172  10.396  20.102  1.00  0.00     0.016 A 
ATOM      7  C   UNL     1      15.134  11.131  17.581  1.00  0.00     0.001 A 
ATOM      8  C   UNL     1      14.707  11.672  19.900  1.00  0.00     0.001 A 
ATOM      9  C   UNL     1      15.187  12.039  18.641  1.00  0.00     0.000 A 
ENDBRANCH   2   4
ENDBRANCH   1   2
BRANCH   1  10
ATOM     10  O   UNL     1      11.245   8.712  18.959  1.00  0.00    -0.242 OA
BRANCH  10  11
ATOM     11  C   UNL     1      10.542   9.200  17.858  1.00  0.00     0.386 C 
ATOM     12  O   UNL     1       9.371   8.788  17.636  1.00  0.00    -0.242 OA
BRANCH  11  13
ATOM     13  C   UNL     1      11.170  10.192  16.958  1.00  0.00     0.064 A 
ATOM     14  C   UNL     1      11.307  11.532  17.363  1.00  0.00     0.016 A 
ATOM     15  C   UNL     1      11.638   9.813  15.685  1.00  0.00     0.016 A 
ATOM     16  C   UNL     1      11.899  12.471  16.514  1.00  0.00     0.001 A 
ATOM     17  C   UNL     1      12.230  10.757  14.840  1.00  0.00     0.001 A 
ATOM     18  C   UNL     1      12.360  12.084  15.254  1.00  0.00     0.000 A 
ENDBRANCH  11  13
ENDBRANCH  10  11
ENDBRANCH   1  10
TORSDOF 5
ENDMDL
MODEL 11
REMARK VINA RESULT:    -7.084      2.607      4.104
REMARK INTER + INTRA:         -10.770
REMARK INTER:                  -8.700
REMARK INTRA:                  -2.070
REMARK UNBOUND:                -1.616
REMARK SMILES O=C(OOC(=O)c1ccccc1)c1ccccc1
REMARK SMILES IDX 3 1 2 2 1 3 13 4 14 5 18 6 15 7 17 8 16 9 4 10 5 11 6 12
REMARK SMILES IDX 7 13 8 14 12 15 9 16 11 17 10 18
REMARK H PARENT
REMARK Flexibility Score: inf
ROOT
ATOM      1  O   UNL     1      12.207   9.573  20.873  1.00  0.00    -0.242 OA
ENDROOT
BRANCH   1   2
ATOM      2  C   UNL     1      10.989  10.094  20.440  1.00  0.00     0.386 C 
ATOM      3  O   UNL     1       9.954   9.925  21.143  1.00  0.00    -0.242 OA
BRANCH   2   4
ATOM      4  C   UNL     1      10.912  10.838  19.164  1.00  0.00     0.064 A 
ATOM      5  C   UNL     1      10.005  10.442  18.164  1.00  0.00     0.016 A 
ATOM      6  C   UNL     1      11.742  11.952  18.929  1.00  0.00     0.016 A 
ATOM      7  C   UNL     1       9.931  11.144  16.958  1.00  0.00     0.001 A 
ATOM      8  C   UNL     1      11.664  12.650  17.721  1.00  0.00     0.001 A 
ATOM      9  C   UNL     1      10.759  12.247  16.736  1.00  0.00     0.000 A 
ENDBRANCH   2   4
ENDBRANCH   1   2
BRANCH   1  10
ATOM     10  O   UNL     1      12.532   8.271  20.638  1.00  0.00    -0.242 OA
BRANCH  10  11
ATOM     11  C   UNL     1      13.483   7.936  19.675  1.00  0.00     0.386 C 
ATOM     12  O   UNL     1      14.466   7.214  19.996  1.00  0.00    -0.242 OA
BRANCH  11  13
ATOM     13  C   UNL     1      13.338   8.428  18.287  1.00  0.00     0.064 A 
ATOM     14  C   UNL     1      12.419   7.822  17.411  1.00  0.00     0.016 A 
ATOM     15  C   UNL     1      14.115   9.507  17.822  1.00  0.00     0.016 A 
ATOM     16  C   UNL     1      12.281   8.285  16.099  1.00  0.00     0.001 A 
ATOM     17  C   UNL     1      13.972   9.966  16.509  1.00  0.00     0.001 A 
ATOM     18  C   UNL     1      13.056   9.355  15.648  1.00  0.00     0.000 A 
ENDBRANCH  11  13
ENDBRANCH  10  11
ENDBRANCH   1  10
TORSDOF 5
ENDMDL
MODEL 12
REMARK VINA RESULT:    -7.053      2.034      3.742
REMARK INTER + INTRA:         -10.730
REMARK INTER:                  -8.649
REMARK INTRA:                  -2.081
REMARK UNBOUND:                -1.616
REMARK SMILES O=C(OOC(=O)c1ccccc1)c1ccccc1
REMARK SMILES IDX 3 1 2 2 1 3 13 4 14 5 18 6 15 7 17 8 16 9 4 10 5 11 6 12
REMARK SMILES IDX 7 13 8 14 12 15 9 16 11 17 10 18
REMARK H PARENT
REMARK Flexibility Score: inf
ROOT
ATOM      1  O   UNL     1      11.057   9.482  20.151  1.00  0.00    -0.242 OA
ENDROOT
BRANCH   1   2
ATOM      2  C   UNL     1      12.138  10.277  20.531  1.00  0.00     0.386 C 
ATOM      3  O   UNL     1      12.295  10.572  21.748  1.00  0.00    -0.242 OA
BRANCH   2   4
ATOM      4  C   UNL     1      13.091  10.769  19.514  1.00  0.00     0.064 A 
ATOM      5  C   UNL     1      12.923  12.041  18.939  1.00  0.00     0.016 A 
ATOM      6  C   UNL     1      14.180   9.974  19.104  1.00  0.00     0.016 A 
ATOM      7  C   UNL     1      13.823  12.509  17.977  1.00  0.00     0.001 A 
ATOM      8  C   UNL     1      15.077  10.447  18.141  1.00  0.00     0.001 A 
ATOM      9  C   UNL     1      14.898  11.713  17.578  1.00  0.00     0.000 A 
ENDBRANCH   2   4
ENDBRANCH   1   2
BRANCH   1  10
ATOM     10  O   UNL     1      10.061   9.987  19.370  1.00  0.00    -0.242 OA
BRANCH  10  11
ATOM     11  C   UNL     1       9.828   9.477  18.094  1.00  0.00     0.386 C 
ATOM     12  O   UNL     1       8.663   9.119  17.770  1.00  0.00    -0.242 OA
BRANCH  11  13
ATOM     13  C   UNL     1      10.943   9.354  17.129  1.00  0.00     0.064 A 
ATOM     14  C   UNL     1      11.210  10.391  16.217  1.00  0.00     0.016 A 
ATOM     15  C   UNL     1      11.753   8.202  17.108  1.00  0.00     0.016 A 
ATOM     16  C   UNL     1      12.263  10.277  15.304  1.00  0.00     0.001 A 
ATOM     17  C   UNL     1      12.804   8.093  16.193  1.00  0.00     0.001 A 
ATOM     18  C   UNL     1      13.059   9.130  15.292  1.00  0.00     0.000 A 
ENDBRANCH  11  13
ENDBRANCH  10  11
ENDBRANCH   1  10
TORSDOF 5
ENDMDL
MODEL 13
REMARK VINA RESULT:    -7.011      2.255      4.557
REMARK INTER + INTRA:         -10.676
REMARK INTER:                  -8.567
REMARK INTRA:                  -2.109
REMARK UNBOUND:                -1.616
REMARK SMILES O=C(OOC(=O)c1ccccc1)c1ccccc1
REMARK SMILES IDX 3 1 2 2 1 3 13 4 14 5 18 6 15 7 17 8 16 9 4 10 5 11 6 12
REMARK SMILES IDX 7 13 8 14 12 15 9 16 11 17 10 18
REMARK H PARENT
REMARK Flexibility Score: inf
ROOT
ATOM      1  O   UNL     1      10.615  12.077  14.829  1.00  0.00    -0.242 OA
ENDROOT
BRANCH   1   2
ATOM      2  C   UNL     1      11.965  11.886  14.540  1.00  0.00     0.386 C 
ATOM      3  O   UNL     1      12.476  12.464  13.541  1.00  0.00    -0.242 OA
BRANCH   2   4
ATOM      4  C   UNL     1      12.792  11.011  15.400  1.00  0.00     0.064 A 
ATOM      5  C   UNL     1      12.770   9.616  15.223  1.00  0.00     0.016 A 
ATOM      6  C   UNL     1      13.610  11.557  16.408  1.00  0.00     0.016 A 
ATOM      7  C   UNL     1      13.549   8.786  16.035  1.00  0.00     0.001 A 
ATOM      8  C   UNL     1      14.388  10.723  17.217  1.00  0.00     0.001 A 
ATOM      9  C   UNL     1      14.358   9.339  17.031  1.00  0.00     0.000 A 
ENDBRANCH   2   4
ENDBRANCH   1   2
BRANCH   1  10
ATOM     10  O   UNL     1      10.230  12.866  15.870  1.00  0.00    -0.242 OA
BRANCH  10  11
ATOM     11  C   UNL     1       9.546  12.326  16.959  1.00  0.00     0.386 C 
ATOM     12  O   UNL     1       8.380  12.728  17.222  1.00  0.00    -0.242 OA
BRANCH  11  13
ATOM     13  C   UNL     1      10.188  11.292  17.799  1.00  0.00     0.064 A 
ATOM     14  C   UNL     1       9.971   9.927  17.535  1.00  0.00     0.016 A 
ATOM     15  C   UNL     1      11.024  11.654  18.873  1.00  0.00     0.016 A 
ATOM     16  C   UNL     1      10.576   8.948  18.328  1.00  0.00     0.001 A 
ATOM     17  C   UNL     1      11.627  10.670  19.663  1.00  0.00     0.001 A 
ATOM     18  C   UNL     1      11.403   9.318  19.390  1.00  0.00     0.000 A 
ENDBRANCH  11  13
ENDBRANCH  10  11
ENDBRANCH   1  10
TORSDOF 5
ENDMDL
MODEL 14
REMARK VINA RESULT:    -6.998      2.276      3.319
REMARK INTER + INTRA:         -10.659
REMARK INTER:                  -8.562
REMARK INTRA:                  -2.097
REMARK UNBOUND:                -1.616
REMARK SMILES O=C(OOC(=O)c1ccccc1)c1ccccc1
REMARK SMILES IDX 3 1 2 2 1 3 13 4 14 5 18 6 15 7 17 8 16 9 4 10 5 11 6 12
REMARK SMILES IDX 7 13 8 14 12 15 9 16 11 17 10 18
REMARK H PARENT
REMARK Flexibility Score: inf
ROOT
ATOM      1  O   UNL     1      10.219  12.899  15.850  1.00  0.00    -0.242 OA
ENDROOT
BRANCH   1   2
ATOM      2  C   UNL     1       9.545  12.400  16.963  1.00  0.00     0.386 C 
ATOM      3  O   UNL     1       8.397  12.840  17.245  1.00  0.00    -0.242 OA
BRANCH   2   4
ATOM      4  C   UNL     1      10.174  11.360  17.806  1.00  0.00     0.064 A 
ATOM      5  C   UNL     1      11.009  11.724  18.878  1.00  0.00     0.016 A 
ATOM      6  C   UNL     1       9.948   9.993  17.552  1.00  0.00     0.016 A 
ATOM      7  C   UNL     1      11.605  10.743  19.676  1.00  0.00     0.001 A 
ATOM      8  C   UNL     1      10.546   9.016  18.354  1.00  0.00     0.001 A 
ATOM      9  C   UNL     1      11.374   9.391  19.415  1.00  0.00     0.000 A 
ENDBRANCH   2   4
ENDBRANCH   1   2
BRANCH   1  10
ATOM     10  O   UNL     1      10.612  12.071  14.843  1.00  0.00    -0.242 OA
BRANCH  10  11
ATOM     11  C   UNL     1      11.964  11.883  14.561  1.00  0.00     0.386 C 
ATOM     12  O   UNL     1      12.479  12.464  13.566  1.00  0.00    -0.242 OA
BRANCH  11  13
ATOM     13  C   UNL     1      12.786  11.005  15.422  1.00  0.00     0.064 A 
ATOM     14  C   UNL     1      12.762   9.610  15.244  1.00  0.00     0.016 A 
ATOM     15  C   UNL     1      13.604  11.549  16.431  1.00  0.00     0.016 A 
ATOM     16  C   UNL     1      13.538   8.779  16.057  1.00  0.00     0.001 A 
ATOM     17  C   UNL     1      14.378  10.713  17.242  1.00  0.00     0.001 A 
ATOM     18  C   UNL     1      14.345   9.329  17.055  1.00  0.00     0.000 A 
ENDBRANCH  11  13
ENDBRANCH  10  11
ENDBRANCH   1  10
TORSDOF 5
ENDMDL
MODEL 15
REMARK VINA RESULT:    -6.941      2.033      3.813
REMARK INTER + INTRA:         -10.586
REMARK INTER:                  -8.457
REMARK INTRA:                  -2.129
REMARK UNBOUND:                -1.616
REMARK SMILES O=C(OOC(=O)c1ccccc1)c1ccccc1
REMARK SMILES IDX 3 1 2 2 1 3 13 4 14 5 18 6 15 7 17 8 16 9 4 10 5 11 6 12
REMARK SMILES IDX 7 13 8 14 12 15 9 16 11 17 10 18
REMARK H PARENT
REMARK Flexibility Score: inf
ROOT
ATOM      1  O   UNL     1       9.937  10.004  19.319  1.00  0.00    -0.242 OA
ENDROOT
BRANCH   1   2
ATOM      2  C   UNL     1       9.675   9.715  17.981  1.00  0.00     0.386 C 
ATOM      3  O   UNL     1       8.638   9.063  17.676  1.00  0.00    -0.242 OA
BRANCH   2   4
ATOM      4  C   UNL     1      10.607  10.169  16.927  1.00  0.00     0.064 A 
ATOM      5  C   UNL     1      11.485   9.257  16.313  1.00  0.00     0.016 A 
ATOM      6  C   UNL     1      10.632  11.518  16.521  1.00  0.00     0.016 A 
ATOM      7  C   UNL     1      12.368   9.685  15.317  1.00  0.00     0.001 A 
ATOM      8  C   UNL     1      11.517  11.940  15.524  1.00  0.00     0.001 A 
ATOM      9  C   UNL     1      12.384  11.024  14.922  1.00  0.00     0.000 A 
ENDBRANCH   2   4
ENDBRANCH   1   2
BRANCH   1  10
ATOM     10  O   UNL     1      10.999   9.440  19.959  1.00  0.00    -0.242 OA
BRANCH  10  11
ATOM     11  C   UNL     1      12.074  10.220  20.381  1.00  0.00     0.386 C 
ATOM     12  O   UNL     1      12.168  10.545  21.596  1.00  0.00    -0.242 OA
BRANCH  11  13
ATOM     13  C   UNL     1      13.095  10.665  19.407  1.00  0.00     0.064 A 
ATOM     14  C   UNL     1      13.192  12.022  19.050  1.00  0.00     0.016 A 
ATOM     15  C   UNL     1      13.983   9.740  18.823  1.00  0.00     0.016 A 
ATOM     16  C   UNL     1      14.156  12.444  18.129  1.00  0.00     0.001 A 
ATOM     17  C   UNL     1      14.945  10.168  17.903  1.00  0.00     0.001 A 
ATOM     18  C   UNL     1      15.031  11.519  17.556  1.00  0.00     0.000 A 
ENDBRANCH  11  13
ENDBRANCH  10  11
ENDBRANCH   1  10
TORSDOF 5
ENDMDL
