MODEL 1
REMARK VINA RESULT:    -9.212      0.000      0.000
REMARK INTER + INTRA:         -13.627
REMARK INTER:                 -12.982
REMARK INTRA:                  -0.645
REMARK UNBOUND:                -0.645
REMARK SMILES N#CCNC(=O)c1ccc(-c2ccnc(Nc3ccc(N4CCOCC4)cc3)n2)cc1
REMARK SMILES IDX 7 1 8 2 9 3 10 4 30 5 31 6 5 7 6 8 4 9 3 11 2 12 1 13 11 14
REMARK SMILES IDX 12 15 29 16 13 17 15 18 14 19 16 20 17 22 18 23 28 24 19 25
REMARK SMILES IDX 27 26 20 27 21 28 22 29 26 30 23 31 25 32 24 33
REMARK H PARENT 4 10 16 21
REMARK Flexibility Score: inf
ROOT
ATOM      1  C   UNL     1       7.901  15.254  10.173  1.00  0.00     0.039 A 
ATOM      2  C   UNL     1       9.134  14.808   9.669  1.00  0.00     0.014 A 
ATOM      3  C   UNL     1      10.136  14.358  10.533  1.00  0.00     0.011 A 
ATOM      4  C   UNL     1       9.928  14.340  11.924  1.00  0.00     0.000 A 
ATOM      5  C   UNL     1       8.684  14.764  12.424  1.00  0.00     0.011 A 
ATOM      6  C   UNL     1       7.684  15.218  11.561  1.00  0.00     0.014 A 
ENDROOT
BRANCH   1   7
ATOM      7  C   UNL     1       6.843  15.719   9.246  1.00  0.00     0.252 C 
ATOM      8  O   UNL     1       5.646  15.763   9.643  1.00  0.00    -0.269 OA
ATOM      9  N   UNL     1       7.158  16.108   7.898  1.00  0.00    -0.339 N 
ATOM     10  H   UNL     1       8.088  15.861   7.492  1.00  0.00     0.164 HD
BRANCH   9  11
ATOM     11  C   UNL     1       6.178  16.744   7.021  1.00  0.00     0.237 C 
BRANCH  11  12
ATOM     12  C   UNL     1       5.759  15.808   5.973  1.00  0.00     0.084 C 
ATOM     13  N   UNL     1       5.428  15.070   5.145  1.00  0.00    -0.196 NA
ENDBRANCH  11  12
ENDBRANCH   9  11
ENDBRANCH   1   7
BRANCH   4  14
ATOM     14  C   UNL     1      10.973  13.853  12.861  1.00  0.00     0.076 A 
ATOM     15  C   UNL     1      11.999  14.686  13.334  1.00  0.00     0.049 A 
ATOM     16  N   UNL     1      10.927  12.563  13.294  1.00  0.00    -0.213 NA
ATOM     17  C   UNL     1      12.937  14.159  14.220  1.00  0.00     0.117 A 
ATOM     18  C   UNL     1      11.856  12.058  14.149  1.00  0.00     0.227 A 
ATOM     19  N   UNL     1      12.848  12.863  14.613  1.00  0.00    -0.221 NA
BRANCH  18  20
ATOM     20  N   UNL     1      11.767  10.703  14.611  1.00  0.00    -0.324 N 
ATOM     21  H   UNL     1      11.401   9.987  13.942  1.00  0.00     0.170 HD
BRANCH  20  22
ATOM     22  C   UNL     1      12.265  10.254  15.882  1.00  0.00     0.041 A 
ATOM     23  C   UNL     1      11.414  10.256  16.996  1.00  0.00     0.028 A 
ATOM     24  C   UNL     1      13.605   9.861  16.045  1.00  0.00     0.028 A 
ATOM     25  C   UNL     1      11.881   9.837  18.245  1.00  0.00     0.028 A 
ATOM     26  C   UNL     1      14.073   9.446  17.294  1.00  0.00     0.028 A 
ATOM     27  C   UNL     1      13.215   9.430  18.407  1.00  0.00     0.037 A 
BRANCH  27  28
ATOM     28  N   UNL     1      13.692   9.003  19.698  1.00  0.00    -0.367 N 
ATOM     29  C   UNL     1      14.012   7.592  19.939  1.00  0.00     0.145 C 
ATOM     30  C   UNL     1      14.225   9.990  20.644  1.00  0.00     0.145 C 
ATOM     31  C   UNL     1      13.842   7.270  21.427  1.00  0.00     0.181 C 
ATOM     32  C   UNL     1      14.032   9.485  22.077  1.00  0.00     0.181 C 
ATOM     33  O   UNL     1      14.569   8.184  22.226  1.00  0.00    -0.378 OA
ENDBRANCH  27  28
ENDBRANCH  20  22
ENDBRANCH  18  20
ENDBRANCH   4  14
TORSDOF 7
ENDMDL
MODEL 2
REMARK VINA RESULT:    -8.474      3.763      4.974
REMARK INTER + INTRA:         -12.587
REMARK INTER:                 -11.800
REMARK INTRA:                  -0.787
REMARK UNBOUND:                -0.645
REMARK SMILES N#CCNC(=O)c1ccc(-c2ccnc(Nc3ccc(N4CCOCC4)cc3)n2)cc1
REMARK SMILES IDX 7 1 8 2 9 3 10 4 30 5 31 6 5 7 6 8 4 9 3 11 2 12 1 13 11 14
REMARK SMILES IDX 12 15 29 16 13 17 15 18 14 19 16 20 17 22 18 23 28 24 19 25
REMARK SMILES IDX 27 26 20 27 21 28 22 29 26 30 23 31 25 32 24 33
REMARK H PARENT 4 10 16 21
REMARK Flexibility Score: inf
ROOT
ATOM      1  C   UNL     1       6.583  15.526  15.593  1.00  0.00     0.039 A 
ATOM      2  C   UNL     1       7.430  14.892  16.517  1.00  0.00     0.014 A 
ATOM      3  C   UNL     1       8.637  14.321  16.103  1.00  0.00     0.011 A 
ATOM      4  C   UNL     1       9.026  14.372  14.752  1.00  0.00     0.000 A 
ATOM      5  C   UNL     1       8.188  15.028  13.833  1.00  0.00     0.011 A 
ATOM      6  C   UNL     1       6.980  15.596  14.247  1.00  0.00     0.014 A 
ENDROOT
BRANCH   1   7
ATOM      7  C   UNL     1       5.312  16.137  16.048  1.00  0.00     0.252 C 
ATOM      8  O   UNL     1       4.286  16.047  15.320  1.00  0.00    -0.269 OA
ATOM      9  N   UNL     1       5.234  16.841  17.299  1.00  0.00    -0.339 N 
ATOM     10  H   UNL     1       6.112  17.119  17.792  1.00  0.00     0.164 HD
BRANCH   9  11
ATOM     11  C   UNL     1       3.964  17.292  17.863  1.00  0.00     0.237 C 
BRANCH  11  12
ATOM     12  C   UNL     1       3.777  18.723  17.604  1.00  0.00     0.084 C 
ATOM     13  N   UNL     1       3.630  19.852  17.398  1.00  0.00    -0.196 NA
ENDBRANCH  11  12
ENDBRANCH   9  11
ENDBRANCH   1   7
BRANCH   4  14
ATOM     14  C   UNL     1      10.310  13.784  14.290  1.00  0.00     0.076 A 
ATOM     15  C   UNL     1      11.253  14.530  13.564  1.00  0.00     0.049 A 
ATOM     16  N   UNL     1      10.596  12.489  14.594  1.00  0.00    -0.213 NA
ATOM     17  C   UNL     1      12.440  13.912  13.174  1.00  0.00     0.117 A 
ATOM     18  C   UNL     1      11.753  11.895  14.197  1.00  0.00     0.227 A 
ATOM     19  N   UNL     1      12.670  12.614  13.498  1.00  0.00    -0.221 NA
BRANCH  18  20
ATOM     20  N   UNL     1      12.039  10.536  14.556  1.00  0.00    -0.324 N 
ATOM     21  H   UNL     1      11.988   9.815  13.800  1.00  0.00     0.170 HD
BRANCH  20  22
ATOM     22  C   UNL     1      12.513  10.132  15.851  1.00  0.00     0.041 A 
ATOM     23  C   UNL     1      11.720   9.289  16.642  1.00  0.00     0.028 A 
ATOM     24  C   UNL     1      13.732  10.605  16.366  1.00  0.00     0.028 A 
ATOM     25  C   UNL     1      12.153   8.893  17.911  1.00  0.00     0.028 A 
ATOM     26  C   UNL     1      14.163  10.213  17.636  1.00  0.00     0.028 A 
ATOM     27  C   UNL     1      13.377   9.353  18.421  1.00  0.00     0.037 A 
BRANCH  27  28
ATOM     28  N   UNL     1      13.817   8.946  19.732  1.00  0.00    -0.367 N 
ATOM     29  C   UNL     1      14.135   7.541  20.002  1.00  0.00     0.145 C 
ATOM     30  C   UNL     1      14.317   9.948  20.679  1.00  0.00     0.145 C 
ATOM     31  C   UNL     1      13.922   7.238  21.488  1.00  0.00     0.181 C 
ATOM     32  C   UNL     1      14.083   9.463  22.112  1.00  0.00     0.181 C 
ATOM     33  O   UNL     1      14.621   8.167  22.297  1.00  0.00    -0.378 OA
ENDBRANCH  27  28
ENDBRANCH  20  22
ENDBRANCH  18  20
ENDBRANCH   4  14
TORSDOF 7
ENDMDL
MODEL 3
REMARK VINA RESULT:    -8.466      3.882      4.548
REMARK INTER + INTRA:         -12.575
REMARK INTER:                 -11.825
REMARK INTRA:                  -0.750
REMARK UNBOUND:                -0.645
REMARK SMILES N#CCNC(=O)c1ccc(-c2ccnc(Nc3ccc(N4CCOCC4)cc3)n2)cc1
REMARK SMILES IDX 7 1 8 2 9 3 10 4 30 5 31 6 5 7 6 8 4 9 3 11 2 12 1 13 11 14
REMARK SMILES IDX 12 15 29 16 13 17 15 18 14 19 16 20 17 22 18 23 28 24 19 25
REMARK SMILES IDX 27 26 20 27 21 28 22 29 26 30 23 31 25 32 24 33
REMARK H PARENT 4 10 16 21
REMARK Flexibility Score: inf
ROOT
ATOM      1  C   UNL     1       6.733  15.675  15.949  1.00  0.00     0.039 A 
ATOM      2  C   UNL     1       7.010  15.722  14.573  1.00  0.00     0.014 A 
ATOM      3  C   UNL     1       8.152  15.105  14.054  1.00  0.00     0.011 A 
ATOM      4  C   UNL     1       9.045  14.423  14.900  1.00  0.00     0.000 A 
ATOM      5  C   UNL     1       8.752  14.356  16.274  1.00  0.00     0.011 A 
ATOM      6  C   UNL     1       7.613  14.975  16.793  1.00  0.00     0.014 A 
ENDROOT
BRANCH   1   7
ATOM      7  C   UNL     1       5.514  16.324  16.485  1.00  0.00     0.252 C 
ATOM      8  O   UNL     1       5.539  16.835  17.638  1.00  0.00    -0.269 OA
ATOM      9  N   UNL     1       4.300  16.368  15.716  1.00  0.00    -0.339 N 
ATOM     10  H   UNL     1       4.197  15.758  14.874  1.00  0.00     0.164 HD
BRANCH   9  11
ATOM     11  C   UNL     1       3.142  17.156  16.131  1.00  0.00     0.237 C 
BRANCH  11  12
ATOM     12  C   UNL     1       1.968  16.784  15.336  1.00  0.00     0.084 C 
ATOM     13  N   UNL     1       1.041  16.490  14.708  1.00  0.00    -0.196 NA
ENDBRANCH  11  12
ENDBRANCH   9  11
ENDBRANCH   1   7
BRANCH   4  14
ATOM     14  C   UNL     1      10.257  13.747  14.370  1.00  0.00     0.076 A 
ATOM     15  C   UNL     1      11.182  14.411  13.548  1.00  0.00     0.049 A 
ATOM     16  N   UNL     1      10.495  12.449  14.705  1.00  0.00    -0.213 NA
ATOM     17  C   UNL     1      12.302  13.713  13.098  1.00  0.00     0.117 A 
ATOM     18  C   UNL     1      11.585  11.777  14.249  1.00  0.00     0.227 A 
ATOM     19  N   UNL     1      12.485  12.417  13.458  1.00  0.00    -0.221 NA
BRANCH  18  20
ATOM     20  N   UNL     1      11.824  10.418  14.641  1.00  0.00    -0.324 N 
ATOM     21  H   UNL     1      11.709   9.677  13.912  1.00  0.00     0.170 HD
BRANCH  20  22
ATOM     22  C   UNL     1      12.332  10.032  15.929  1.00  0.00     0.041 A 
ATOM     23  C   UNL     1      11.439   9.601  16.920  1.00  0.00     0.028 A 
ATOM     24  C   UNL     1      13.700  10.126  16.235  1.00  0.00     0.028 A 
ATOM     25  C   UNL     1      11.908   9.235  18.185  1.00  0.00     0.028 A 
ATOM     26  C   UNL     1      14.168   9.763  17.500  1.00  0.00     0.028 A 
ATOM     27  C   UNL     1      13.276   9.313  18.488  1.00  0.00     0.037 A 
BRANCH  27  28
ATOM     28  N   UNL     1      13.754   8.938  19.794  1.00  0.00    -0.367 N 
ATOM     29  C   UNL     1      14.124   7.547  20.075  1.00  0.00     0.145 C 
ATOM     30  C   UNL     1      14.237   9.968  20.720  1.00  0.00     0.145 C 
ATOM     31  C   UNL     1      13.949   7.257  21.569  1.00  0.00     0.181 C 
ATOM     32  C   UNL     1      14.047   9.493  22.163  1.00  0.00     0.181 C 
ATOM     33  O   UNL     1      14.631   8.218  22.353  1.00  0.00    -0.378 OA
ENDBRANCH  27  28
ENDBRANCH  20  22
ENDBRANCH  18  20
ENDBRANCH   4  14
TORSDOF 7
ENDMDL
MODEL 4
REMARK VINA RESULT:    -8.279      2.851     12.406
REMARK INTER + INTRA:         -12.311
REMARK INTER:                 -11.620
REMARK INTRA:                  -0.691
REMARK UNBOUND:                -0.645
REMARK SMILES N#CCNC(=O)c1ccc(-c2ccnc(Nc3ccc(N4CCOCC4)cc3)n2)cc1
REMARK SMILES IDX 7 1 8 2 9 3 10 4 30 5 31 6 5 7 6 8 4 9 3 11 2 12 1 13 11 14
REMARK SMILES IDX 12 15 29 16 13 17 15 18 14 19 16 20 17 22 18 23 28 24 19 25
REMARK SMILES IDX 27 26 20 27 21 28 22 29 26 30 23 31 25 32 24 33
REMARK H PARENT 4 10 16 21
REMARK Flexibility Score: inf
ROOT
ATOM      1  C   UNL     1      13.475   9.263  18.526  1.00  0.00     0.039 A 
ATOM      2  C   UNL     1      12.164   9.674  18.230  1.00  0.00     0.014 A 
ATOM      3  C   UNL     1      11.926  10.658  17.266  1.00  0.00     0.011 A 
ATOM      4  C   UNL     1      12.994  11.254  16.573  1.00  0.00     0.000 A 
ATOM      5  C   UNL     1      14.303  10.824  16.853  1.00  0.00     0.011 A 
ATOM      6  C   UNL     1      14.542   9.843  17.818  1.00  0.00     0.014 A 
ENDROOT
BRANCH   1   7
ATOM      7  C   UNL     1      13.713   8.211  19.542  1.00  0.00     0.252 C 
ATOM      8  O   UNL     1      13.394   7.018  19.285  1.00  0.00    -0.269 OA
ATOM      9  N   UNL     1      14.290   8.532  20.818  1.00  0.00    -0.339 N 
ATOM     10  H   UNL     1      14.343   9.529  21.127  1.00  0.00     0.164 HD
BRANCH   9  11
ATOM     11  C   UNL     1      14.709   7.502  21.767  1.00  0.00     0.237 C 
BRANCH  11  12
ATOM     12  C   UNL     1      13.679   7.314  22.793  1.00  0.00     0.084 C 
ATOM     13  N   UNL     1      12.866   7.166  23.604  1.00  0.00    -0.196 NA
ENDBRANCH  11  12
ENDBRANCH   9  11
ENDBRANCH   1   7
BRANCH   4  14
ATOM     14  C   UNL     1      12.765  12.292  15.534  1.00  0.00     0.076 A 
ATOM     15  C   UNL     1      12.687  13.658  15.849  1.00  0.00     0.049 A 
ATOM     16  N   UNL     1      12.645  11.914  14.232  1.00  0.00    -0.213 NA
ATOM     17  C   UNL     1      12.481  14.574  14.818  1.00  0.00     0.117 A 
ATOM     18  C   UNL     1      12.432  12.816  13.238  1.00  0.00     0.227 A 
ATOM     19  N   UNL     1      12.362  14.140  13.538  1.00  0.00    -0.221 NA
BRANCH  18  20
ATOM     20  N   UNL     1      12.338  12.392  11.871  1.00  0.00    -0.324 N 
ATOM     21  H   UNL     1      12.356  11.363  11.681  1.00  0.00     0.170 HD
BRANCH  20  22
ATOM     22  C   UNL     1      12.095  13.282  10.769  1.00  0.00     0.041 A 
ATOM     23  C   UNL     1      10.777  13.529  10.360  1.00  0.00     0.028 A 
ATOM     24  C   UNL     1      13.154  13.871  10.057  1.00  0.00     0.028 A 
ATOM     25  C   UNL     1      10.517  14.379   9.282  1.00  0.00     0.028 A 
ATOM     26  C   UNL     1      12.895  14.719   8.977  1.00  0.00     0.028 A 
ATOM     27  C   UNL     1      11.573  14.981   8.579  1.00  0.00     0.037 A 
BRANCH  27  28
ATOM     28  N   UNL     1      11.300  15.855   7.466  1.00  0.00    -0.367 N 
ATOM     29  C   UNL     1      11.513  15.390   6.092  1.00  0.00     0.145 C 
ATOM     30  C   UNL     1      10.463  17.044   7.657  1.00  0.00     0.145 C 
ATOM     31  C   UNL     1      11.809  16.586   5.181  1.00  0.00     0.181 C 
ATOM     32  C   UNL     1      10.845  18.113   6.630  1.00  0.00     0.181 C 
ATOM     33  O   UNL     1      10.814  17.583   5.319  1.00  0.00    -0.378 OA
ENDBRANCH  27  28
ENDBRANCH  20  22
ENDBRANCH  18  20
ENDBRANCH   4  14
TORSDOF 7
ENDMDL
MODEL 5
REMARK VINA RESULT:    -8.176      1.977      2.450
REMARK INTER + INTRA:         -12.166
REMARK INTER:                 -11.412
REMARK INTRA:                  -0.754
REMARK UNBOUND:                -0.645
REMARK SMILES N#CCNC(=O)c1ccc(-c2ccnc(Nc3ccc(N4CCOCC4)cc3)n2)cc1
REMARK SMILES IDX 7 1 8 2 9 3 10 4 30 5 31 6 5 7 6 8 4 9 3 11 2 12 1 13 11 14
REMARK SMILES IDX 12 15 29 16 13 17 15 18 14 19 16 20 17 22 18 23 28 24 19 25
REMARK SMILES IDX 27 26 20 27 21 28 22 29 26 30 23 31 25 32 24 33
REMARK H PARENT 4 10 16 21
REMARK Flexibility Score: inf
ROOT
ATOM      1  C   UNL     1       7.193  15.971  11.233  1.00  0.00     0.039 A 
ATOM      2  C   UNL     1       8.101  15.287  10.407  1.00  0.00     0.014 A 
ATOM      3  C   UNL     1       9.241  14.685  10.946  1.00  0.00     0.011 A 
ATOM      4  C   UNL     1       9.501  14.751  12.327  1.00  0.00     0.000 A 
ATOM      5  C   UNL     1       8.578  15.415  13.155  1.00  0.00     0.011 A 
ATOM      6  C   UNL     1       7.440  16.019  12.616  1.00  0.00     0.014 A 
ENDROOT
BRANCH   1   7
ATOM      7  C   UNL     1       5.982  16.595  10.650  1.00  0.00     0.252 C 
ATOM      8  O   UNL     1       5.447  16.077   9.633  1.00  0.00    -0.269 OA
ATOM      9  N   UNL     1       5.417  17.788  11.220  1.00  0.00    -0.339 N 
ATOM     10  H   UNL     1       5.972  18.348  11.906  1.00  0.00     0.164 HD
BRANCH   9  11
ATOM     11  C   UNL     1       4.127  18.322  10.790  1.00  0.00     0.237 C 
BRANCH  11  12
ATOM     12  C   UNL     1       3.041  17.673  11.529  1.00  0.00     0.084 C 
ATOM     13  N   UNL     1       2.183  17.159  12.113  1.00  0.00    -0.196 NA
ENDBRANCH  11  12
ENDBRANCH   9  11
ENDBRANCH   1   7
BRANCH   4  14
ATOM     14  C   UNL     1      10.699  14.107  12.926  1.00  0.00     0.076 A 
ATOM     15  C   UNL     1      11.884  14.818  13.170  1.00  0.00     0.049 A 
ATOM     16  N   UNL     1      10.644  12.790  13.268  1.00  0.00    -0.213 NA
ATOM     17  C   UNL     1      12.963  14.148  13.745  1.00  0.00     0.117 A 
ATOM     18  C   UNL     1      11.708  12.145  13.816  1.00  0.00     0.227 A 
ATOM     19  N   UNL     1      12.856  12.832  14.059  1.00  0.00    -0.221 NA
BRANCH  18  20
ATOM     20  N   UNL     1      11.613  10.764  14.192  1.00  0.00    -0.324 N 
ATOM     21  H   UNL     1      11.386  10.073  13.441  1.00  0.00     0.170 HD
BRANCH  20  22
ATOM     22  C   UNL     1      11.934  10.266  15.501  1.00  0.00     0.041 A 
ATOM     23  C   UNL     1      11.027  10.456  16.553  1.00  0.00     0.028 A 
ATOM     24  C   UNL     1      13.163   9.636  15.763  1.00  0.00     0.028 A 
ATOM     25  C   UNL     1      11.324   9.992  17.838  1.00  0.00     0.028 A 
ATOM     26  C   UNL     1      13.462   9.176  17.048  1.00  0.00     0.028 A 
ATOM     27  C   UNL     1      12.544   9.349  18.098  1.00  0.00     0.037 A 
BRANCH  27  28
ATOM     28  N   UNL     1      12.848   8.877  19.426  1.00  0.00    -0.367 N 
ATOM     29  C   UNL     1      12.269   9.540  20.598  1.00  0.00     0.145 C 
ATOM     30  C   UNL     1      13.404   7.532  19.613  1.00  0.00     0.145 C 
ATOM     31  C   UNL     1      13.187   9.346  21.809  1.00  0.00     0.181 C 
ATOM     32  C   UNL     1      14.239   7.496  20.896  1.00  0.00     0.181 C 
ATOM     33  O   UNL     1      13.490   7.976  21.997  1.00  0.00    -0.378 OA
ENDBRANCH  27  28
ENDBRANCH  20  22
ENDBRANCH  18  20
ENDBRANCH   4  14
TORSDOF 7
ENDMDL
MODEL 6
REMARK VINA RESULT:    -8.136      4.368      6.441
REMARK INTER + INTRA:         -12.111
REMARK INTER:                 -11.297
REMARK INTRA:                  -0.814
REMARK UNBOUND:                -0.645
REMARK SMILES N#CCNC(=O)c1ccc(-c2ccnc(Nc3ccc(N4CCOCC4)cc3)n2)cc1
REMARK SMILES IDX 7 1 8 2 9 3 10 4 30 5 31 6 5 7 6 8 4 9 3 11 2 12 1 13 11 14
REMARK SMILES IDX 12 15 29 16 13 17 15 18 14 19 16 20 17 22 18 23 28 24 19 25
REMARK SMILES IDX 27 26 20 27 21 28 22 29 26 30 23 31 25 32 24 33
REMARK H PARENT 4 10 16 21
REMARK Flexibility Score: inf
ROOT
ATOM      1  C   UNL     1       6.968  16.089  16.829  1.00  0.00     0.039 A 
ATOM      2  C   UNL     1       8.369  16.202  16.858  1.00  0.00     0.014 A 
ATOM      3  C   UNL     1       9.152  15.621  15.856  1.00  0.00     0.011 A 
ATOM      4  C   UNL     1       8.552  14.915  14.798  1.00  0.00     0.000 A 
ATOM      5  C   UNL     1       7.149  14.824  14.758  1.00  0.00     0.011 A 
ATOM      6  C   UNL     1       6.367  15.401  15.762  1.00  0.00     0.014 A 
ENDROOT
BRANCH   1   7
ATOM      7  C   UNL     1       6.150  16.718  17.892  1.00  0.00     0.252 C 
ATOM      8  O   UNL     1       4.959  17.049  17.642  1.00  0.00    -0.269 OA
ATOM      9  N   UNL     1       6.696  16.967  19.198  1.00  0.00    -0.339 N 
ATOM     10  H   UNL     1       7.729  16.913  19.347  1.00  0.00     0.164 HD
BRANCH   9  11
ATOM     11  C   UNL     1       5.870  17.411  20.318  1.00  0.00     0.237 C 
BRANCH  11  12
ATOM     12  C   UNL     1       6.704  17.636  21.502  1.00  0.00     0.084 C 
ATOM     13  N   UNL     1       7.363  17.814  22.437  1.00  0.00    -0.196 NA
ENDBRANCH  11  12
ENDBRANCH   9  11
ENDBRANCH   1   7
BRANCH   4  14
ATOM     14  C   UNL     1       9.362  14.301  13.714  1.00  0.00     0.076 A 
ATOM     15  C   UNL     1       9.113  14.563  12.357  1.00  0.00     0.049 A 
ATOM     16  N   UNL     1      10.392  13.474  14.041  1.00  0.00    -0.213 NA
ATOM     17  C   UNL     1       9.923  13.959  11.397  1.00  0.00     0.117 A 
ATOM     18  C   UNL     1      11.167  12.882  13.094  1.00  0.00     0.227 A 
ATOM     19  N   UNL     1      10.933  13.136  11.781  1.00  0.00    -0.221 NA
BRANCH  18  20
ATOM     20  N   UNL     1      12.264  12.037  13.469  1.00  0.00    -0.324 N 
ATOM     21  H   UNL     1      13.075  11.976  12.812  1.00  0.00     0.170 HD
BRANCH  20  22
ATOM     22  C   UNL     1      12.370  11.376  14.741  1.00  0.00     0.041 A 
ATOM     23  C   UNL     1      11.675  10.177  14.955  1.00  0.00     0.028 A 
ATOM     24  C   UNL     1      13.113  11.933  15.796  1.00  0.00     0.028 A 
ATOM     25  C   UNL     1      11.750   9.524  16.188  1.00  0.00     0.028 A 
ATOM     26  C   UNL     1      13.186  11.282  17.030  1.00  0.00     0.028 A 
ATOM     27  C   UNL     1      12.505  10.071  17.238  1.00  0.00     0.037 A 
BRANCH  27  28
ATOM     28  N   UNL     1      12.577   9.396  18.509  1.00  0.00    -0.367 N 
ATOM     29  C   UNL     1      11.883   9.944  19.678  1.00  0.00     0.145 C 
ATOM     30  C   UNL     1      13.002   7.993  18.569  1.00  0.00     0.145 C 
ATOM     31  C   UNL     1      12.598   9.503  20.959  1.00  0.00     0.181 C 
ATOM     32  C   UNL     1      13.636   7.705  19.933  1.00  0.00     0.181 C 
ATOM     33  O   UNL     1      12.771   8.098  20.982  1.00  0.00    -0.378 OA
ENDBRANCH  27  28
ENDBRANCH  20  22
ENDBRANCH  18  20
ENDBRANCH   4  14
TORSDOF 7
ENDMDL
MODEL 7
REMARK VINA RESULT:    -8.098      2.047      2.355
REMARK INTER + INTRA:         -12.056
REMARK INTER:                 -11.368
REMARK INTRA:                  -0.689
REMARK UNBOUND:                -0.645
REMARK SMILES N#CCNC(=O)c1ccc(-c2ccnc(Nc3ccc(N4CCOCC4)cc3)n2)cc1
REMARK SMILES IDX 7 1 8 2 9 3 10 4 30 5 31 6 5 7 6 8 4 9 3 11 2 12 1 13 11 14
REMARK SMILES IDX 12 15 29 16 13 17 15 18 14 19 16 20 17 22 18 23 28 24 19 25
REMARK SMILES IDX 27 26 20 27 21 28 22 29 26 30 23 31 25 32 24 33
REMARK H PARENT 4 10 16 21
REMARK Flexibility Score: inf
ROOT
ATOM      1  C   UNL     1      10.836  15.073   8.868  1.00  0.00     0.039 A 
ATOM      2  C   UNL     1      12.003  14.697   9.555  1.00  0.00     0.014 A 
ATOM      3  C   UNL     1      11.932  14.187  10.855  1.00  0.00     0.011 A 
ATOM      4  C   UNL     1      10.690  14.038  11.498  1.00  0.00     0.000 A 
ATOM      5  C   UNL     1       9.522  14.391  10.799  1.00  0.00     0.011 A 
ATOM      6  C   UNL     1       9.593  14.904   9.502  1.00  0.00     0.014 A 
ENDROOT
BRANCH   1   7
ATOM      7  C   UNL     1      10.925  15.602   7.487  1.00  0.00     0.252 C 
ATOM      8  O   UNL     1      11.724  15.069   6.669  1.00  0.00    -0.269 OA
ATOM      9  N   UNL     1      10.123  16.720   7.070  1.00  0.00    -0.339 N 
ATOM     10  H   UNL     1       9.639  17.306   7.786  1.00  0.00     0.164 HD
BRANCH   9  11
ATOM     11  C   UNL     1      10.047  17.148   5.675  1.00  0.00     0.237 C 
BRANCH  11  12
ATOM     12  C   UNL     1       8.696  16.923   5.152  1.00  0.00     0.084 C 
ATOM     13  N   UNL     1       7.629  16.746   4.740  1.00  0.00    -0.196 NA
ENDBRANCH  11  12
ENDBRANCH   9  11
ENDBRANCH   1   7
BRANCH   4  14
ATOM     14  C   UNL     1      10.588  13.485  12.873  1.00  0.00     0.076 A 
ATOM     15  C   UNL     1       9.892  14.150  13.896  1.00  0.00     0.049 A 
ATOM     16  N   UNL     1      11.168  12.285  13.152  1.00  0.00    -0.213 NA
ATOM     17  C   UNL     1       9.831  13.563  15.158  1.00  0.00     0.117 A 
ATOM     18  C   UNL     1      11.110  11.729  14.392  1.00  0.00     0.227 A 
ATOM     19  N   UNL     1      10.434  12.368  15.382  1.00  0.00    -0.221 NA
BRANCH  18  20
ATOM     20  N   UNL     1      11.707  10.450  14.649  1.00  0.00    -0.324 N 
ATOM     21  H   UNL     1      11.839   9.806  13.836  1.00  0.00     0.170 HD
BRANCH  20  22
ATOM     22  C   UNL     1      12.245  10.058  15.922  1.00  0.00     0.041 A 
ATOM     23  C   UNL     1      11.438   9.349  16.823  1.00  0.00     0.028 A 
ATOM     24  C   UNL     1      13.549  10.415  16.307  1.00  0.00     0.028 A 
ATOM     25  C   UNL     1      11.935   8.969  18.073  1.00  0.00     0.028 A 
ATOM     26  C   UNL     1      14.045  10.039  17.558  1.00  0.00     0.028 A 
ATOM     27  C   UNL     1      13.242   9.311  18.453  1.00  0.00     0.037 A 
BRANCH  27  28
ATOM     28  N   UNL     1      13.749   8.921  19.745  1.00  0.00    -0.367 N 
ATOM     29  C   UNL     1      14.086   7.520  20.014  1.00  0.00     0.145 C 
ATOM     30  C   UNL     1      14.289   9.936  20.655  1.00  0.00     0.145 C 
ATOM     31  C   UNL     1      13.948   7.234  21.513  1.00  0.00     0.181 C 
ATOM     32  C   UNL     1      14.130   9.465  22.104  1.00  0.00     0.181 C 
ATOM     33  O   UNL     1      14.682   8.174  22.275  1.00  0.00    -0.378 OA
ENDBRANCH  27  28
ENDBRANCH  20  22
ENDBRANCH  18  20
ENDBRANCH   4  14
TORSDOF 7
ENDMDL
MODEL 8
REMARK VINA RESULT:    -8.071      6.766     12.614
REMARK INTER + INTRA:         -12.019
REMARK INTER:                 -11.257
REMARK INTRA:                  -0.762
REMARK UNBOUND:                -0.645
REMARK SMILES N#CCNC(=O)c1ccc(-c2ccnc(Nc3ccc(N4CCOCC4)cc3)n2)cc1
REMARK SMILES IDX 7 1 8 2 9 3 10 4 30 5 31 6 5 7 6 8 4 9 3 11 2 12 1 13 11 14
REMARK SMILES IDX 12 15 29 16 13 17 15 18 14 19 16 20 17 22 18 23 28 24 19 25
REMARK SMILES IDX 27 26 20 27 21 28 22 29 26 30 23 31 25 32 24 33
REMARK H PARENT 4 10 16 21
REMARK Flexibility Score: inf
ROOT
ATOM      1  C   UNL     1      12.021  12.540  14.197  1.00  0.00     0.039 A 
ATOM      2  C   UNL     1      13.150  13.253  13.759  1.00  0.00     0.014 A 
ATOM      3  C   UNL     1      13.202  13.783  12.467  1.00  0.00     0.011 A 
ATOM      4  C   UNL     1      12.123  13.614  11.580  1.00  0.00     0.000 A 
ATOM      5  C   UNL     1      10.985  12.921  12.029  1.00  0.00     0.011 A 
ATOM      6  C   UNL     1      10.934  12.389  13.319  1.00  0.00     0.014 A 
ENDROOT
BRANCH   1   7
ATOM      7  C   UNL     1      11.975  11.993  15.573  1.00  0.00     0.252 C 
ATOM      8  O   UNL     1      13.047  11.859  16.223  1.00  0.00    -0.269 OA
ATOM      9  N   UNL     1      10.728  11.603  16.173  1.00  0.00    -0.339 N 
ATOM     10  H   UNL     1       9.878  11.492  15.576  1.00  0.00     0.164 HD
BRANCH   9  11
ATOM     11  C   UNL     1      10.621  11.237  17.583  1.00  0.00     0.237 C 
BRANCH  11  12
ATOM     12  C   UNL     1      10.169   9.848  17.711  1.00  0.00     0.084 C 
ATOM     13  N   UNL     1       9.812   8.752  17.812  1.00  0.00    -0.196 NA
ENDBRANCH  11  12
ENDBRANCH   9  11
ENDBRANCH   1   7
BRANCH   4  14
ATOM     14  C   UNL     1      12.149  14.179  10.207  1.00  0.00     0.076 A 
ATOM     15  C   UNL     1      10.986  14.632   9.564  1.00  0.00     0.049 A 
ATOM     16  N   UNL     1      13.339  14.283   9.553  1.00  0.00    -0.213 NA
ATOM     17  C   UNL     1      11.092  15.161   8.278  1.00  0.00     0.117 A 
ATOM     18  C   UNL     1      13.426  14.790   8.294  1.00  0.00     0.227 A 
ATOM     19  N   UNL     1      12.303  15.234   7.671  1.00  0.00    -0.221 NA
BRANCH  18  20
ATOM     20  N   UNL     1      14.697  14.913   7.641  1.00  0.00    -0.324 N 
ATOM     21  H   UNL     1      15.515  15.207   8.224  1.00  0.00     0.170 HD
BRANCH  20  22
ATOM     22  C   UNL     1      14.937  14.538   6.275  1.00  0.00     0.041 A 
ATOM     23  C   UNL     1      15.069  13.181   5.946  1.00  0.00     0.028 A 
ATOM     24  C   UNL     1      15.093  15.504   5.266  1.00  0.00     0.028 A 
ATOM     25  C   UNL     1      15.317  12.793   4.626  1.00  0.00     0.028 A 
ATOM     26  C   UNL     1      15.344  15.116   3.948  1.00  0.00     0.028 A 
ATOM     27  C   UNL     1      15.458  13.756   3.615  1.00  0.00     0.037 A 
BRANCH  27  28
ATOM     28  N   UNL     1      15.718  13.351   2.257  1.00  0.00    -0.367 N 
ATOM     29  C   UNL     1      16.731  14.047   1.457  1.00  0.00     0.145 C 
ATOM     30  C   UNL     1      15.273  12.033   1.789  1.00  0.00     0.145 C 
ATOM     31  C   UNL     1      16.384  13.933  -0.031  1.00  0.00     0.181 C 
ATOM     32  C   UNL     1      15.033  12.078   0.278  1.00  0.00     0.181 C 
ATOM     33  O   UNL     1      16.170  12.583  -0.396  1.00  0.00    -0.378 OA
ENDBRANCH  27  28
ENDBRANCH  20  22
ENDBRANCH  18  20
ENDBRANCH   4  14
TORSDOF 7
ENDMDL
MODEL 9
REMARK VINA RESULT:    -8.066      7.743     11.064
REMARK INTER + INTRA:         -12.012
REMARK INTER:                 -11.293
REMARK INTRA:                  -0.719
REMARK UNBOUND:                -0.645
REMARK SMILES N#CCNC(=O)c1ccc(-c2ccnc(Nc3ccc(N4CCOCC4)cc3)n2)cc1
REMARK SMILES IDX 7 1 8 2 9 3 10 4 30 5 31 6 5 7 6 8 4 9 3 11 2 12 1 13 11 14
REMARK SMILES IDX 12 15 29 16 13 17 15 18 14 19 16 20 17 22 18 23 28 24 19 25
REMARK SMILES IDX 27 26 20 27 21 28 22 29 26 30 23 31 25 32 24 33
REMARK H PARENT 4 10 16 21
REMARK Flexibility Score: inf
ROOT
ATOM      1  C   UNL     1      13.655  10.725  19.326  1.00  0.00     0.039 A 
ATOM      2  C   UNL     1      14.369  11.442  20.302  1.00  0.00     0.014 A 
ATOM      3  C   UNL     1      15.539  12.129  19.967  1.00  0.00     0.011 A 
ATOM      4  C   UNL     1      16.023  12.119  18.647  1.00  0.00     0.000 A 
ATOM      5  C   UNL     1      15.294  11.421  17.667  1.00  0.00     0.011 A 
ATOM      6  C   UNL     1      14.126  10.731  18.002  1.00  0.00     0.014 A 
ENDROOT
BRANCH   1   7
ATOM      7  C   UNL     1      12.411  10.009  19.691  1.00  0.00     0.252 C 
ATOM      8  O   UNL     1      12.471   9.021  20.473  1.00  0.00    -0.269 OA
ATOM      9  N   UNL     1      11.139  10.416  19.158  1.00  0.00    -0.339 N 
ATOM     10  H   UNL     1      11.103  11.071  18.345  1.00  0.00     0.164 HD
BRANCH   9  11
ATOM     11  C   UNL     1       9.877   9.856  19.637  1.00  0.00     0.237 C 
BRANCH  11  12
ATOM     12  C   UNL     1       8.940   9.697  18.521  1.00  0.00     0.084 C 
ATOM     13  N   UNL     1       8.201   9.572  17.639  1.00  0.00    -0.196 NA
ENDBRANCH  11  12
ENDBRANCH   9  11
ENDBRANCH   1   7
BRANCH   4  14
ATOM     14  C   UNL     1      17.256  12.854  18.264  1.00  0.00     0.076 A 
ATOM     15  C   UNL     1      17.215  14.039  17.512  1.00  0.00     0.049 A 
ATOM     16  N   UNL     1      18.466  12.380  18.671  1.00  0.00    -0.213 NA
ATOM     17  C   UNL     1      18.415  14.678  17.201  1.00  0.00     0.117 A 
ATOM     18  C   UNL     1      19.629  13.007  18.350  1.00  0.00     0.227 A 
ATOM     19  N   UNL     1      19.593  14.156  17.626  1.00  0.00    -0.221 NA
BRANCH  18  20
ATOM     20  N   UNL     1      20.887  12.499  18.816  1.00  0.00    -0.324 N 
ATOM     21  H   UNL     1      21.227  12.830  19.748  1.00  0.00     0.170 HD
BRANCH  20  22
ATOM     22  C   UNL     1      21.638  11.475  18.143  1.00  0.00     0.041 A 
ATOM     23  C   UNL     1      21.826  10.235  18.768  1.00  0.00     0.028 A 
ATOM     24  C   UNL     1      22.233  11.708  16.891  1.00  0.00     0.028 A 
ATOM     25  C   UNL     1      22.566   9.229  18.139  1.00  0.00     0.028 A 
ATOM     26  C   UNL     1      22.974  10.704  16.263  1.00  0.00     0.028 A 
ATOM     27  C   UNL     1      23.148   9.454  16.882  1.00  0.00     0.037 A 
BRANCH  27  28
ATOM     28  N   UNL     1      23.912   8.415  16.238  1.00  0.00    -0.367 N 
ATOM     29  C   UNL     1      23.257   7.179  15.799  1.00  0.00     0.145 C 
ATOM     30  C   UNL     1      25.232   8.720  15.675  1.00  0.00     0.145 C 
ATOM     31  C   UNL     1      24.273   6.032  15.784  1.00  0.00     0.181 C 
ATOM     32  C   UNL     1      26.096   7.456  15.676  1.00  0.00     0.181 C 
ATOM     33  O   UNL     1      25.423   6.387  15.038  1.00  0.00    -0.378 OA
ENDBRANCH  27  28
ENDBRANCH  20  22
ENDBRANCH  18  20
ENDBRANCH   4  14
TORSDOF 7
ENDMDL
MODEL 10
REMARK VINA RESULT:    -8.046      8.898     13.027
REMARK INTER + INTRA:         -11.984
REMARK INTER:                 -11.239
REMARK INTRA:                  -0.745
REMARK UNBOUND:                -0.645
REMARK SMILES N#CCNC(=O)c1ccc(-c2ccnc(Nc3ccc(N4CCOCC4)cc3)n2)cc1
REMARK SMILES IDX 7 1 8 2 9 3 10 4 30 5 31 6 5 7 6 8 4 9 3 11 2 12 1 13 11 14
REMARK SMILES IDX 12 15 29 16 13 17 15 18 14 19 16 20 17 22 18 23 28 24 19 25
REMARK SMILES IDX 27 26 20 27 21 28 22 29 26 30 23 31 25 32 24 33
REMARK H PARENT 4 10 16 21
REMARK Flexibility Score: inf
ROOT
ATOM      1  C   UNL     1      23.289   8.519  16.919  1.00  0.00     0.039 A 
ATOM      2  C   UNL     1      22.789   8.646  18.226  1.00  0.00     0.014 A 
ATOM      3  C   UNL     1      22.197   9.839  18.650  1.00  0.00     0.011 A 
ATOM      4  C   UNL     1      22.089  10.935  17.774  1.00  0.00     0.000 A 
ATOM      5  C   UNL     1      22.568  10.797  16.460  1.00  0.00     0.011 A 
ATOM      6  C   UNL     1      23.163   9.605  16.037  1.00  0.00     0.014 A 
ENDROOT
BRANCH   1   7
ATOM      7  C   UNL     1      23.905   7.245  16.479  1.00  0.00     0.252 C 
ATOM      8  O   UNL     1      24.791   6.705  17.197  1.00  0.00    -0.269 OA
ATOM      9  N   UNL     1      23.517   6.623  15.243  1.00  0.00    -0.339 N 
ATOM     10  H   UNL     1      22.965   7.165  14.541  1.00  0.00     0.164 HD
BRANCH   9  11
ATOM     11  C   UNL     1      23.963   5.282  14.870  1.00  0.00     0.237 C 
BRANCH  11  12
ATOM     12  C   UNL     1      23.032   4.693  13.903  1.00  0.00     0.084 C 
ATOM     13  N   UNL     1      22.297   4.227  13.140  1.00  0.00    -0.196 NA
ENDBRANCH  11  12
ENDBRANCH   9  11
ENDBRANCH   1   7
BRANCH   4  14
ATOM     14  C   UNL     1      21.451  12.208  18.197  1.00  0.00     0.076 A 
ATOM     15  C   UNL     1      22.168  13.219  18.857  1.00  0.00     0.049 A 
ATOM     16  N   UNL     1      20.134  12.416  17.920  1.00  0.00    -0.213 NA
ATOM     17  C   UNL     1      21.502  14.391  19.213  1.00  0.00     0.117 A 
ATOM     18  C   UNL     1      19.494  13.559  18.284  1.00  0.00     0.227 A 
ATOM     19  N   UNL     1      20.186  14.541  18.919  1.00  0.00    -0.221 NA
BRANCH  18  20
ATOM     20  N   UNL     1      18.113  13.762  17.955  1.00  0.00    -0.324 N 
ATOM     21  H   UNL     1      17.897  14.343  17.112  1.00  0.00     0.170 HD
BRANCH  20  22
ATOM     22  C   UNL     1      17.023  13.114  18.632  1.00  0.00     0.041 A 
ATOM     23  C   UNL     1      16.262  12.154  17.951  1.00  0.00     0.028 A 
ATOM     24  C   UNL     1      16.670  13.460  19.948  1.00  0.00     0.028 A 
ATOM     25  C   UNL     1      15.188  11.522  18.585  1.00  0.00     0.028 A 
ATOM     26  C   UNL     1      15.595  12.831  20.580  1.00  0.00     0.028 A 
ATOM     27  C   UNL     1      14.843  11.855  19.904  1.00  0.00     0.037 A 
BRANCH  27  28
ATOM     28  N   UNL     1      13.733  11.203  20.552  1.00  0.00    -0.367 N 
ATOM     29  C   UNL     1      13.871  10.690  21.918  1.00  0.00     0.145 C 
ATOM     30  C   UNL     1      12.374  11.381  20.028  1.00  0.00     0.145 C 
ATOM     31  C   UNL     1      12.900   9.524  22.134  1.00  0.00     0.181 C 
ATOM     32  C   UNL     1      11.522  10.160  20.385  1.00  0.00     0.181 C 
ATOM     33  O   UNL     1      11.582   9.894  21.773  1.00  0.00    -0.378 OA
ENDBRANCH  27  28
ENDBRANCH  20  22
ENDBRANCH  18  20
ENDBRANCH   4  14
TORSDOF 7
ENDMDL
MODEL 11
REMARK VINA RESULT:    -8.018      4.654      7.077
REMARK INTER + INTRA:         -11.944
REMARK INTER:                 -11.216
REMARK INTRA:                  -0.729
REMARK UNBOUND:                -0.645
REMARK SMILES N#CCNC(=O)c1ccc(-c2ccnc(Nc3ccc(N4CCOCC4)cc3)n2)cc1
REMARK SMILES IDX 7 1 8 2 9 3 10 4 30 5 31 6 5 7 6 8 4 9 3 11 2 12 1 13 11 14
REMARK SMILES IDX 12 15 29 16 13 17 15 18 14 19 16 20 17 22 18 23 28 24 19 25
REMARK SMILES IDX 27 26 20 27 21 28 22 29 26 30 23 31 25 32 24 33
REMARK H PARENT 4 10 16 21
REMARK Flexibility Score: inf
ROOT
ATOM      1  C   UNL     1       8.038  15.872  18.340  1.00  0.00     0.039 A 
ATOM      2  C   UNL     1       7.252  15.414  17.269  1.00  0.00     0.014 A 
ATOM      3  C   UNL     1       7.836  14.738  16.194  1.00  0.00     0.011 A 
ATOM      4  C   UNL     1       9.222  14.499  16.166  1.00  0.00     0.000 A 
ATOM      5  C   UNL     1      10.003  14.937  17.250  1.00  0.00     0.011 A 
ATOM      6  C   UNL     1       9.420  15.616  18.323  1.00  0.00     0.014 A 
ENDROOT
BRANCH   1   7
ATOM      7  C   UNL     1       7.405  16.578  19.478  1.00  0.00     0.252 C 
ATOM      8  O   UNL     1       6.231  17.021  19.356  1.00  0.00    -0.269 OA
ATOM      9  N   UNL     1       8.114  16.777  20.713  1.00  0.00    -0.339 N 
ATOM     10  H   UNL     1       9.147  16.624  20.747  1.00  0.00     0.164 HD
BRANCH   9  11
ATOM     11  C   UNL     1       7.463  17.300  21.911  1.00  0.00     0.237 C 
BRANCH  11  12
ATOM     12  C   UNL     1       8.419  17.358  23.020  1.00  0.00     0.084 C 
ATOM     13  N   UNL     1       9.175  17.404  23.896  1.00  0.00    -0.196 NA
ENDBRANCH  11  12
ENDBRANCH   9  11
ENDBRANCH   1   7
BRANCH   4  14
ATOM     14  C   UNL     1       9.863  13.770  15.041  1.00  0.00     0.076 A 
ATOM     15  C   UNL     1       9.938  14.310  13.747  1.00  0.00     0.049 A 
ATOM     16  N   UNL     1      10.415  12.547  15.272  1.00  0.00    -0.213 NA
ATOM     17  C   UNL     1      10.565  13.570  12.746  1.00  0.00     0.117 A 
ATOM     18  C   UNL     1      11.013  11.830  14.283  1.00  0.00     0.227 A 
ATOM     19  N   UNL     1      11.092  12.352  13.031  1.00  0.00    -0.221 NA
BRANCH  18  20
ATOM     20  N   UNL     1      11.611  10.557  14.561  1.00  0.00    -0.324 N 
ATOM     21  H   UNL     1      11.739   9.897  13.760  1.00  0.00     0.170 HD
BRANCH  20  22
ATOM     22  C   UNL     1      12.156  10.188  15.839  1.00  0.00     0.041 A 
ATOM     23  C   UNL     1      11.312   9.644  16.817  1.00  0.00     0.028 A 
ATOM     24  C   UNL     1      13.509  10.409  16.148  1.00  0.00     0.028 A 
ATOM     25  C   UNL     1      11.817   9.292  18.072  1.00  0.00     0.028 A 
ATOM     26  C   UNL     1      14.013  10.060  17.404  1.00  0.00     0.028 A 
ATOM     27  C   UNL     1      13.172   9.497  18.378  1.00  0.00     0.037 A 
BRANCH  27  28
ATOM     28  N   UNL     1      13.687   9.136  19.675  1.00  0.00    -0.367 N 
ATOM     29  C   UNL     1      14.066   7.749  19.959  1.00  0.00     0.145 C 
ATOM     30  C   UNL     1      14.193  10.176  20.576  1.00  0.00     0.145 C 
ATOM     31  C   UNL     1      13.933   7.473  21.461  1.00  0.00     0.181 C 
ATOM     32  C   UNL     1      14.044   9.716  22.029  1.00  0.00     0.181 C 
ATOM     33  O   UNL     1      14.636   8.443  22.215  1.00  0.00    -0.378 OA
ENDBRANCH  27  28
ENDBRANCH  20  22
ENDBRANCH  18  20
ENDBRANCH   4  14
TORSDOF 7
ENDMDL
MODEL 12
REMARK VINA RESULT:    -8.009      7.060     12.327
REMARK INTER + INTRA:         -11.931
REMARK INTER:                 -11.189
REMARK INTRA:                  -0.742
REMARK UNBOUND:                -0.645
REMARK SMILES N#CCNC(=O)c1ccc(-c2ccnc(Nc3ccc(N4CCOCC4)cc3)n2)cc1
REMARK SMILES IDX 7 1 8 2 9 3 10 4 30 5 31 6 5 7 6 8 4 9 3 11 2 12 1 13 11 14
REMARK SMILES IDX 12 15 29 16 13 17 15 18 14 19 16 20 17 22 18 23 28 24 19 25
REMARK SMILES IDX 27 26 20 27 21 28 22 29 26 30 23 31 25 32 24 33
REMARK H PARENT 4 10 16 21
REMARK Flexibility Score: inf
ROOT
ATOM      1  C   UNL     1      22.422  11.672  17.058  1.00  0.00     0.039 A 
ATOM      2  C   UNL     1      22.560  13.048  16.808  1.00  0.00     0.014 A 
ATOM      3  C   UNL     1      21.675  13.968  17.376  1.00  0.00     0.011 A 
ATOM      4  C   UNL     1      20.630  13.534  18.212  1.00  0.00     0.000 A 
ATOM      5  C   UNL     1      20.509  12.159  18.480  1.00  0.00     0.011 A 
ATOM      6  C   UNL     1      21.391  11.239  17.909  1.00  0.00     0.014 A 
ENDROOT
BRANCH   1   7
ATOM      7  C   UNL     1      23.374  10.708  16.457  1.00  0.00     0.252 C 
ATOM      8  O   UNL     1      24.613  10.909  16.571  1.00  0.00    -0.269 OA
ATOM      9  N   UNL     1      22.904   9.555  15.738  1.00  0.00    -0.339 N 
ATOM     10  H   UNL     1      21.904   9.500  15.443  1.00  0.00     0.164 HD
BRANCH   9  11
ATOM     11  C   UNL     1      23.804   8.492  15.297  1.00  0.00     0.237 C 
BRANCH  11  12
ATOM     12  C   UNL     1      23.216   7.181  15.589  1.00  0.00     0.084 C 
ATOM     13  N   UNL     1      22.753   6.145  15.820  1.00  0.00    -0.196 NA
ENDBRANCH  11  12
ENDBRANCH   9  11
ENDBRANCH   1   7
BRANCH   4  14
ATOM     14  C   UNL     1      19.686  14.494  18.839  1.00  0.00     0.076 A 
ATOM     15  C   UNL     1      20.084  15.781  19.236  1.00  0.00     0.049 A 
ATOM     16  N   UNL     1      18.387  14.128  19.019  1.00  0.00    -0.213 NA
ATOM     17  C   UNL     1      19.137  16.630  19.808  1.00  0.00     0.117 A 
ATOM     18  C   UNL     1      17.477  14.962  19.589  1.00  0.00     0.227 A 
ATOM     19  N   UNL     1      17.857  16.209  19.970  1.00  0.00    -0.221 NA
BRANCH  18  20
ATOM     20  N   UNL     1      16.108  14.559  19.740  1.00  0.00    -0.324 N 
ATOM     21  H   UNL     1      15.523  15.083  20.430  1.00  0.00     0.170 HD
BRANCH  20  22
ATOM     22  C   UNL     1      15.467  13.572  18.915  1.00  0.00     0.041 A 
ATOM     23  C   UNL     1      14.609  13.986  17.886  1.00  0.00     0.028 A 
ATOM     24  C   UNL     1      15.639  12.197  19.151  1.00  0.00     0.028 A 
ATOM     25  C   UNL     1      13.963  13.043  17.081  1.00  0.00     0.028 A 
ATOM     26  C   UNL     1      14.991  11.256  18.348  1.00  0.00     0.028 A 
ATOM     27  C   UNL     1      14.146  11.670  17.305  1.00  0.00     0.037 A 
BRANCH  27  28
ATOM     28  N   UNL     1      13.475  10.702  16.474  1.00  0.00    -0.367 N 
ATOM     29  C   UNL     1      12.678  11.141  15.324  1.00  0.00     0.145 C 
ATOM     30  C   UNL     1      13.877   9.293  16.522  1.00  0.00     0.145 C 
ATOM     31  C   UNL     1      11.584  10.109  15.029  1.00  0.00     0.181 C 
ATOM     32  C   UNL     1      12.689   8.405  16.140  1.00  0.00     0.181 C 
ATOM     33  O   UNL     1      12.135   8.812  14.904  1.00  0.00    -0.378 OA
ENDBRANCH  27  28
ENDBRANCH  20  22
ENDBRANCH  18  20
ENDBRANCH   4  14
TORSDOF 7
ENDMDL
MODEL 13
REMARK VINA RESULT:    -7.977      3.463      4.177
REMARK INTER + INTRA:         -11.886
REMARK INTER:                 -11.145
REMARK INTRA:                  -0.741
REMARK UNBOUND:                -0.645
REMARK SMILES N#CCNC(=O)c1ccc(-c2ccnc(Nc3ccc(N4CCOCC4)cc3)n2)cc1
REMARK SMILES IDX 7 1 8 2 9 3 10 4 30 5 31 6 5 7 6 8 4 9 3 11 2 12 1 13 11 14
REMARK SMILES IDX 12 15 29 16 13 17 15 18 14 19 16 20 17 22 18 23 28 24 19 25
REMARK SMILES IDX 27 26 20 27 21 28 22 29 26 30 23 31 25 32 24 33
REMARK H PARENT 4 10 16 21
REMARK Flexibility Score: inf
ROOT
ATOM      1  C   UNL     1      12.656  14.753   8.792  1.00  0.00     0.039 A 
ATOM      2  C   UNL     1      11.293  14.780   9.132  1.00  0.00     0.014 A 
ATOM      3  C   UNL     1      10.858  14.306  10.373  1.00  0.00     0.011 A 
ATOM      4  C   UNL     1      11.778  13.796  11.307  1.00  0.00     0.000 A 
ATOM      5  C   UNL     1      13.144  13.793  10.974  1.00  0.00     0.011 A 
ATOM      6  C   UNL     1      13.578  14.263   9.732  1.00  0.00     0.014 A 
ENDROOT
BRANCH   1   7
ATOM      7  C   UNL     1      13.105  15.268   7.477  1.00  0.00     0.252 C 
ATOM      8  O   UNL     1      12.346  16.030   6.818  1.00  0.00    -0.269 OA
ATOM      9  N   UNL     1      14.386  14.903   6.937  1.00  0.00    -0.339 N 
ATOM     10  H   UNL     1      14.916  14.106   7.355  1.00  0.00     0.164 HD
BRANCH   9  11
ATOM     11  C   UNL     1      14.937  15.534   5.740  1.00  0.00     0.237 C 
BRANCH  11  12
ATOM     12  C   UNL     1      15.153  14.530   4.695  1.00  0.00     0.084 C 
ATOM     13  N   UNL     1      15.323  13.736   3.870  1.00  0.00    -0.196 NA
ENDBRANCH  11  12
ENDBRANCH   9  11
ENDBRANCH   1   7
BRANCH   4  14
ATOM     14  C   UNL     1      11.342  13.300  12.638  1.00  0.00     0.076 A 
ATOM     15  C   UNL     1      10.526  14.064  13.488  1.00  0.00     0.049 A 
ATOM     16  N   UNL     1      11.725  12.058  13.043  1.00  0.00    -0.213 NA
ATOM     17  C   UNL     1      10.149  13.526  14.717  1.00  0.00     0.117 A 
ATOM     18  C   UNL     1      11.360  11.550  14.250  1.00  0.00     0.227 A 
ATOM     19  N   UNL     1      10.566  12.285  15.073  1.00  0.00    -0.221 NA
BRANCH  18  20
ATOM     20  N   UNL     1      11.755  10.227  14.638  1.00  0.00    -0.324 N 
ATOM     21  H   UNL     1      11.751   9.485  13.901  1.00  0.00     0.170 HD
BRANCH  20  22
ATOM     22  C   UNL     1      12.275   9.894  15.936  1.00  0.00     0.041 A 
ATOM     23  C   UNL     1      11.451   9.236  16.860  1.00  0.00     0.028 A 
ATOM     24  C   UNL     1      13.576  10.260  16.320  1.00  0.00     0.028 A 
ATOM     25  C   UNL     1      11.930   8.914  18.133  1.00  0.00     0.028 A 
ATOM     26  C   UNL     1      14.054   9.942  17.594  1.00  0.00     0.028 A 
ATOM     27  C   UNL     1      13.234   9.266  18.513  1.00  0.00     0.037 A 
BRANCH  27  28
ATOM     28  N   UNL     1      13.722   8.935  19.828  1.00  0.00    -0.367 N 
ATOM     29  C   UNL     1      14.103   7.557  20.152  1.00  0.00     0.145 C 
ATOM     30  C   UNL     1      14.203   9.998  20.718  1.00  0.00     0.145 C 
ATOM     31  C   UNL     1      13.938   7.313  21.655  1.00  0.00     0.181 C 
ATOM     32  C   UNL     1      14.024   9.568  22.177  1.00  0.00     0.181 C 
ATOM     33  O   UNL     1      14.618   8.304  22.404  1.00  0.00    -0.378 OA
ENDBRANCH  27  28
ENDBRANCH  20  22
ENDBRANCH  18  20
ENDBRANCH   4  14
TORSDOF 7
ENDMDL
MODEL 14
REMARK VINA RESULT:    -7.974      5.338     11.588
REMARK INTER + INTRA:         -11.882
REMARK INTER:                 -11.125
REMARK INTRA:                  -0.757
REMARK UNBOUND:                -0.645
REMARK SMILES N#CCNC(=O)c1ccc(-c2ccnc(Nc3ccc(N4CCOCC4)cc3)n2)cc1
REMARK SMILES IDX 7 1 8 2 9 3 10 4 30 5 31 6 5 7 6 8 4 9 3 11 2 12 1 13 11 14
REMARK SMILES IDX 12 15 29 16 13 17 15 18 14 19 16 20 17 22 18 23 28 24 19 25
REMARK SMILES IDX 27 26 20 27 21 28 22 29 26 30 23 31 25 32 24 33
REMARK H PARENT 4 10 16 21
REMARK Flexibility Score: inf
ROOT
ATOM      1  C   UNL     1      11.162  12.273  14.967  1.00  0.00     0.039 A 
ATOM      2  C   UNL     1      10.143  13.241  14.985  1.00  0.00     0.014 A 
ATOM      3  C   UNL     1       9.831  13.969  13.834  1.00  0.00     0.011 A 
ATOM      4  C   UNL     1      10.530  13.745  12.634  1.00  0.00     0.000 A 
ATOM      5  C   UNL     1      11.532  12.759  12.612  1.00  0.00     0.011 A 
ATOM      6  C   UNL     1      11.846  12.033  13.764  1.00  0.00     0.014 A 
ENDROOT
BRANCH   1   7
ATOM      7  C   UNL     1      11.475  11.501  16.192  1.00  0.00     0.252 C 
ATOM      8  O   UNL     1      12.638  11.553  16.677  1.00  0.00    -0.269 OA
ATOM      9  N   UNL     1      10.477  10.685  16.829  1.00  0.00    -0.339 N 
ATOM     10  H   UNL     1       9.595  10.453  16.319  1.00  0.00     0.164 HD
BRANCH   9  11
ATOM     11  C   UNL     1      10.694  10.061  18.132  1.00  0.00     0.237 C 
BRANCH  11  12
ATOM     12  C   UNL     1      10.929   8.623  17.970  1.00  0.00     0.084 C 
ATOM     13  N   UNL     1      11.113   7.488  17.842  1.00  0.00    -0.196 NA
ENDBRANCH  11  12
ENDBRANCH   9  11
ENDBRANCH   1   7
BRANCH   4  14
ATOM     14  C   UNL     1      10.207  14.496  11.393  1.00  0.00     0.076 A 
ATOM     15  C   UNL     1       8.884  14.700  10.968  1.00  0.00     0.049 A 
ATOM     16  N   UNL     1      11.220  15.022  10.652  1.00  0.00    -0.213 NA
ATOM     17  C   UNL     1       8.660  15.425   9.798  1.00  0.00     0.117 A 
ATOM     18  C   UNL     1      10.988  15.716   9.506  1.00  0.00     0.227 A 
ATOM     19  N   UNL     1       9.709  15.921   9.094  1.00  0.00    -0.221 NA
BRANCH  18  20
ATOM     20  N   UNL     1      12.074  16.283   8.760  1.00  0.00    -0.324 N 
ATOM     21  H   UNL     1      12.427  17.222   9.057  1.00  0.00     0.170 HD
BRANCH  20  22
ATOM     22  C   UNL     1      12.783  15.588   7.721  1.00  0.00     0.041 A 
ATOM     23  C   UNL     1      14.012  14.982   8.012  1.00  0.00     0.028 A 
ATOM     24  C   UNL     1      12.294  15.547   6.404  1.00  0.00     0.028 A 
ATOM     25  C   UNL     1      14.727  14.313   7.014  1.00  0.00     0.028 A 
ATOM     26  C   UNL     1      13.010  14.882   5.405  1.00  0.00     0.028 A 
ATOM     27  C   UNL     1      14.233  14.257   5.701  1.00  0.00     0.037 A 
BRANCH  27  28
ATOM     28  N   UNL     1      14.975  13.570   4.675  1.00  0.00    -0.367 N 
ATOM     29  C   UNL     1      15.874  14.314   3.787  1.00  0.00     0.145 C 
ATOM     30  C   UNL     1      15.143  12.114   4.745  1.00  0.00     0.145 C 
ATOM     31  C   UNL     1      16.007  13.578   2.450  1.00  0.00     0.181 C 
ATOM     32  C   UNL     1      15.327  11.548   3.334  1.00  0.00     0.181 C 
ATOM     33  O   UNL     1      16.367  12.224   2.654  1.00  0.00    -0.378 OA
ENDBRANCH  27  28
ENDBRANCH  20  22
ENDBRANCH  18  20
ENDBRANCH   4  14
TORSDOF 7
ENDMDL
MODEL 15
REMARK VINA RESULT:    -7.963      1.823      2.574
REMARK INTER + INTRA:         -11.867
REMARK INTER:                 -11.181
REMARK INTRA:                  -0.687
REMARK UNBOUND:                -0.645
REMARK SMILES N#CCNC(=O)c1ccc(-c2ccnc(Nc3ccc(N4CCOCC4)cc3)n2)cc1
REMARK SMILES IDX 7 1 8 2 9 3 10 4 30 5 31 6 5 7 6 8 4 9 3 11 2 12 1 13 11 14
REMARK SMILES IDX 12 15 29 16 13 17 15 18 14 19 16 20 17 22 18 23 28 24 19 25
REMARK SMILES IDX 27 26 20 27 21 28 22 29 26 30 23 31 25 32 24 33
REMARK H PARENT 4 10 16 21
REMARK Flexibility Score: inf
ROOT
ATOM      1  C   UNL     1       7.619  16.044   9.148  1.00  0.00     0.039 A 
ATOM      2  C   UNL     1       7.545  15.193  10.264  1.00  0.00     0.014 A 
ATOM      3  C   UNL     1       8.706  14.672  10.842  1.00  0.00     0.011 A 
ATOM      4  C   UNL     1       9.972  14.993  10.318  1.00  0.00     0.000 A 
ATOM      5  C   UNL     1      10.045  15.864   9.217  1.00  0.00     0.011 A 
ATOM      6  C   UNL     1       8.884  16.382   8.638  1.00  0.00     0.014 A 
ENDROOT
BRANCH   1   7
ATOM      7  C   UNL     1       6.381  16.597   8.552  1.00  0.00     0.252 C 
ATOM      8  O   UNL     1       6.337  17.818   8.237  1.00  0.00    -0.269 OA
ATOM      9  N   UNL     1       5.226  15.768   8.339  1.00  0.00    -0.339 N 
ATOM     10  H   UNL     1       5.169  14.831   8.799  1.00  0.00     0.164 HD
BRANCH   9  11
ATOM     11  C   UNL     1       4.061  16.229   7.588  1.00  0.00     0.237 C 
BRANCH  11  12
ATOM     12  C   UNL     1       4.109  15.714   6.217  1.00  0.00     0.084 C 
ATOM     13  N   UNL     1       4.146  15.306   5.134  1.00  0.00    -0.196 NA
ENDBRANCH  11  12
ENDBRANCH   9  11
ENDBRANCH   1   7
BRANCH   4  14
ATOM     14  C   UNL     1      11.221  14.463  10.924  1.00  0.00     0.076 A 
ATOM     15  C   UNL     1      12.277  13.966  10.143  1.00  0.00     0.049 A 
ATOM     16  N   UNL     1      11.361  14.476  12.278  1.00  0.00    -0.213 NA
ATOM     17  C   UNL     1      13.422  13.496  10.784  1.00  0.00     0.117 A 
ATOM     18  C   UNL     1      12.479  14.003  12.891  1.00  0.00     0.227 A 
ATOM     19  N   UNL     1      13.504  13.526  12.138  1.00  0.00    -0.221 NA
BRANCH  18  20
ATOM     20  N   UNL     1      12.609  14.056  14.318  1.00  0.00    -0.324 N 
ATOM     21  H   UNL     1      12.439  14.975  14.786  1.00  0.00     0.170 HD
BRANCH  20  22
ATOM     22  C   UNL     1      12.832  12.902  15.146  1.00  0.00     0.041 A 
ATOM     23  C   UNL     1      12.407  11.643  14.702  1.00  0.00     0.028 A 
ATOM     24  C   UNL     1      13.422  13.017  16.417  1.00  0.00     0.028 A 
ATOM     25  C   UNL     1      12.600  10.509  15.497  1.00  0.00     0.028 A 
ATOM     26  C   UNL     1      13.611  11.884  17.213  1.00  0.00     0.028 A 
ATOM     27  C   UNL     1      13.203  10.619  16.760  1.00  0.00     0.037 A 
BRANCH  27  28
ATOM     28  N   UNL     1      13.396   9.447  17.577  1.00  0.00    -0.367 N 
ATOM     29  C   UNL     1      12.869   8.149  17.145  1.00  0.00     0.145 C 
ATOM     30  C   UNL     1      14.423   9.448  18.625  1.00  0.00     0.145 C 
ATOM     31  C   UNL     1      12.595   7.269  18.369  1.00  0.00     0.181 C 
ATOM     32  C   UNL     1      14.025   8.473  19.736  1.00  0.00     0.181 C 
ATOM     33  O   UNL     1      13.736   7.194  19.202  1.00  0.00    -0.378 OA
ENDBRANCH  27  28
ENDBRANCH  20  22
ENDBRANCH  18  20
ENDBRANCH   4  14
TORSDOF 7
ENDMDL
