MODEL 1
REMARK VINA RESULT:    -7.411      0.000      0.000
REMARK INTER + INTRA:          -9.779
REMARK INTER:                  -9.360
REMARK INTRA:                  -0.419
REMARK UNBOUND:                -0.419
REMARK SMILES CN1[C@@H]2CC[C@H]1C[C@@H](OC(=O)C(O)c1ccccc1)C2
REMARK SMILES IDX 10 1 11 2 9 3 8 4 6 5 5 6 7 7 2 8 4 9 3 10 1 11 20 12 12 13
REMARK SMILES IDX 13 14 14 16 15 17 19 18 16 19 18 20 17 21
REMARK H PARENT 13 15
REMARK Flexibility Score: inf
ROOT
ATOM      1  C   UNL     1      16.507  32.709   8.382  1.00  0.00     0.339 C 
ATOM      2  O   UNL     1      15.756  33.655   8.018  1.00  0.00    -0.249 OA
ENDROOT
BRANCH   1   3
ATOM      3  O   UNL     1      16.617  32.367   9.735  1.00  0.00    -0.460 OA
BRANCH   3   4
ATOM      4  C   UNL     1      16.218  33.220  10.809  1.00  0.00     0.179 C 
ATOM      5  C   UNL     1      18.390  34.315  11.719  1.00  0.00     0.060 C 
ATOM      6  C   UNL     1      19.257  33.172  11.171  1.00  0.00     0.021 C 
ATOM      7  C   UNL     1      17.115  34.494  10.847  1.00  0.00     0.064 C 
ATOM      8  N   UNL     1      18.055  33.850  13.066  1.00  0.00    -0.300 NA
ATOM      9  C   UNL     1      18.749  31.926  11.917  1.00  0.00     0.021 C 
ATOM     10  C   UNL     1      17.643  32.465  12.837  1.00  0.00     0.060 C 
ATOM     11  C   UNL     1      17.138  34.692  13.853  1.00  0.00     0.105 C 
ATOM     12  C   UNL     1      16.259  32.405  12.130  1.00  0.00     0.064 C 
ENDBRANCH   3   4
ENDBRANCH   1   3
BRANCH   1  13
ATOM     13  C   UNL     1      17.360  31.980   7.383  1.00  0.00     0.254 C 
BRANCH  13  14
ATOM     14  O   UNL     1      18.682  31.801   7.840  1.00  0.00    -0.377 OA
ATOM     15  H   UNL     1      18.678  31.134   8.580  1.00  0.00     0.212 HD
ENDBRANCH  13  14
BRANCH  13  16
ATOM     16  C   UNL     1      16.715  30.666   6.995  1.00  0.00    -0.008 A 
ATOM     17  C   UNL     1      17.524  29.566   6.642  1.00  0.00     0.007 A 
ATOM     18  C   UNL     1      15.314  30.540   6.897  1.00  0.00     0.007 A 
ATOM     19  C   UNL     1      16.941  28.355   6.253  1.00  0.00     0.000 A 
ATOM     20  C   UNL     1      14.737  29.324   6.511  1.00  0.00     0.000 A 
ATOM     21  C   UNL     1      15.549  28.230   6.200  1.00  0.00     0.000 A 
ENDBRANCH  13  16
ENDBRANCH   1  13
TORSDOF 5
ENDMDL
MODEL 2
REMARK VINA RESULT:    -7.245      0.910      2.103
REMARK INTER + INTRA:          -9.569
REMARK INTER:                  -9.189
REMARK INTRA:                  -0.380
REMARK UNBOUND:                -0.419
REMARK SMILES CN1[C@@H]2CC[C@H]1C[C@@H](OC(=O)C(O)c1ccccc1)C2
REMARK SMILES IDX 10 1 11 2 9 3 8 4 6 5 5 6 7 7 2 8 4 9 3 10 1 11 20 12 12 13
REMARK SMILES IDX 13 14 14 16 15 17 19 18 16 19 18 20 17 21
REMARK H PARENT 13 15
REMARK Flexibility Score: inf
ROOT
ATOM      1  C   UNL     1      16.827  32.947   8.231  1.00  0.00     0.339 C 
ATOM      2  O   UNL     1      16.313  34.043   7.877  1.00  0.00    -0.249 OA
ENDROOT
BRANCH   1   3
ATOM      3  O   UNL     1      17.047  32.668   9.585  1.00  0.00    -0.460 OA
BRANCH   3   4
ATOM      4  C   UNL     1      18.148  33.181  10.337  1.00  0.00     0.179 C 
ATOM      5  C   UNL     1      17.784  32.401  12.788  1.00  0.00     0.060 C 
ATOM      6  C   UNL     1      16.272  32.246  12.568  1.00  0.00     0.021 C 
ATOM      7  C   UNL     1      18.552  32.172  11.455  1.00  0.00     0.064 C 
ATOM      8  N   UNL     1      17.905  33.788  13.242  1.00  0.00    -0.300 NA
ATOM      9  C   UNL     1      15.797  33.667  12.219  1.00  0.00     0.021 C 
ATOM     10  C   UNL     1      17.076  34.516  12.281  1.00  0.00     0.060 C 
ATOM     11  C   UNL     1      19.267  34.300  13.463  1.00  0.00     0.105 C 
ATOM     12  C   UNL     1      17.763  34.580  10.888  1.00  0.00     0.064 C 
ENDBRANCH   3   4
ENDBRANCH   1   3
BRANCH   1  13
ATOM     13  C   UNL     1      17.285  31.949   7.205  1.00  0.00     0.254 C 
BRANCH  13  14
ATOM     14  O   UNL     1      18.615  31.534   7.423  1.00  0.00    -0.377 OA
ATOM     15  H   UNL     1      18.844  31.677   8.381  1.00  0.00     0.212 HD
ENDBRANCH  13  14
BRANCH  13  16
ATOM     16  C   UNL     1      16.331  30.774   7.146  1.00  0.00    -0.008 A 
ATOM     17  C   UNL     1      15.015  30.915   7.632  1.00  0.00     0.007 A 
ATOM     18  C   UNL     1      16.757  29.509   6.691  1.00  0.00     0.007 A 
ATOM     19  C   UNL     1      14.133  29.830   7.611  1.00  0.00     0.000 A 
ATOM     20  C   UNL     1      15.868  28.428   6.669  1.00  0.00     0.000 A 
ATOM     21  C   UNL     1      14.555  28.591   7.118  1.00  0.00     0.000 A 
ENDBRANCH  13  16
ENDBRANCH   1  13
TORSDOF 5
ENDMDL
MODEL 3
REMARK VINA RESULT:    -7.200      2.583      4.044
REMARK INTER + INTRA:          -9.513
REMARK INTER:                  -8.984
REMARK INTRA:                  -0.529
REMARK UNBOUND:                -0.419
REMARK SMILES CN1[C@@H]2CC[C@H]1C[C@@H](OC(=O)C(O)c1ccccc1)C2
REMARK SMILES IDX 10 1 11 2 9 3 8 4 6 5 5 6 7 7 2 8 4 9 3 10 1 11 20 12 12 13
REMARK SMILES IDX 13 14 14 16 15 17 19 18 16 19 18 20 17 21
REMARK H PARENT 13 15
REMARK Flexibility Score: inf
ROOT
ATOM      1  C   UNL     1      17.630  32.822  11.837  1.00  0.00     0.339 C 
ATOM      2  O   UNL     1      16.569  32.250  12.210  1.00  0.00    -0.249 OA
ENDROOT
BRANCH   1   3
ATOM      3  O   UNL     1      18.230  33.801  12.637  1.00  0.00    -0.460 OA
BRANCH   3   4
ATOM      4  C   UNL     1      18.463  33.655  14.039  1.00  0.00     0.179 C 
ATOM      5  C   UNL     1      20.818  34.653  14.497  1.00  0.00     0.060 C 
ATOM      6  C   UNL     1      21.250  34.431  13.040  1.00  0.00     0.021 C 
ATOM      7  C   UNL     1      19.280  34.869  14.578  1.00  0.00     0.064 C 
ATOM      8  N   UNL     1      21.216  33.402  15.146  1.00  0.00    -0.300 NA
ATOM      9  C   UNL     1      21.172  32.906  12.853  1.00  0.00     0.021 C 
ATOM     10  C   UNL     1      20.713  32.384  14.223  1.00  0.00     0.060 C 
ATOM     11  C   UNL     1      20.857  33.244  16.565  1.00  0.00     0.105 C 
ATOM     12  C   UNL     1      19.162  32.291  14.286  1.00  0.00     0.064 C 
ENDBRANCH   3   4
ENDBRANCH   1   3
BRANCH   1  13
ATOM     13  C   UNL     1      18.230  32.521  10.493  1.00  0.00     0.254 C 
BRANCH  13  14
ATOM     14  O   UNL     1      18.625  31.173  10.376  1.00  0.00    -0.377 OA
ATOM     15  H   UNL     1      18.692  30.777  11.287  1.00  0.00     0.212 HD
ENDBRANCH  13  14
BRANCH  13  16
ATOM     16  C   UNL     1      17.280  32.928   9.386  1.00  0.00    -0.008 A 
ATOM     17  C   UNL     1      16.666  34.196   9.421  1.00  0.00     0.007 A 
ATOM     18  C   UNL     1      16.927  32.028   8.358  1.00  0.00     0.007 A 
ATOM     19  C   UNL     1      15.763  34.573   8.421  1.00  0.00     0.000 A 
ATOM     20  C   UNL     1      16.027  32.413   7.359  1.00  0.00     0.000 A 
ATOM     21  C   UNL     1      15.454  33.687   7.383  1.00  0.00     0.000 A 
ENDBRANCH  13  16
ENDBRANCH   1  13
TORSDOF 5
ENDMDL
MODEL 4
REMARK VINA RESULT:    -7.127      3.120      5.086
REMARK INTER + INTRA:          -9.421
REMARK INTER:                  -8.906
REMARK INTRA:                  -0.516
REMARK UNBOUND:                -0.419
REMARK SMILES CN1[C@@H]2CC[C@H]1C[C@@H](OC(=O)C(O)c1ccccc1)C2
REMARK SMILES IDX 10 1 11 2 9 3 8 4 6 5 5 6 7 7 2 8 4 9 3 10 1 11 20 12 12 13
REMARK SMILES IDX 13 14 14 16 15 17 19 18 16 19 18 20 17 21
REMARK H PARENT 13 15
REMARK Flexibility Score: inf
ROOT
ATOM      1  C   UNL     1      18.077  33.327  12.474  1.00  0.00     0.339 C 
ATOM      2  O   UNL     1      17.254  32.395  12.694  1.00  0.00    -0.249 OA
ENDROOT
BRANCH   1   3
ATOM      3  O   UNL     1      18.369  34.268  13.468  1.00  0.00    -0.460 OA
BRANCH   3   4
ATOM      4  C   UNL     1      19.525  34.214  14.305  1.00  0.00     0.179 C 
ATOM      5  C   UNL     1      18.663  33.777  16.716  1.00  0.00     0.060 C 
ATOM      6  C   UNL     1      17.281  34.358  16.381  1.00  0.00     0.021 C 
ATOM      7  C   UNL     1      19.318  33.169  15.443  1.00  0.00     0.064 C 
ATOM      8  N   UNL     1      19.401  34.951  17.187  1.00  0.00    -0.300 NA
ATOM      9  C   UNL     1      17.569  35.822  16.007  1.00  0.00     0.021 C 
ATOM     10  C   UNL     1      19.091  35.957  16.172  1.00  0.00     0.060 C 
ATOM     11  C   UNL     1      20.823  34.756  17.514  1.00  0.00     0.105 C 
ATOM     12  C   UNL     1      19.820  35.644  14.834  1.00  0.00     0.064 C 
ENDBRANCH   3   4
ENDBRANCH   1   3
BRANCH   1  13
ATOM     13  C   UNL     1      18.703  33.491  11.118  1.00  0.00     0.254 C 
BRANCH  13  14
ATOM     14  O   UNL     1      19.506  32.387  10.765  1.00  0.00    -0.377 OA
ATOM     15  H   UNL     1      20.427  32.536  11.112  1.00  0.00     0.212 HD
ENDBRANCH  13  14
BRANCH  13  16
ATOM     16  C   UNL     1      17.640  33.771  10.075  1.00  0.00    -0.008 A 
ATOM     17  C   UNL     1      17.606  33.010   8.889  1.00  0.00     0.007 A 
ATOM     18  C   UNL     1      16.730  34.838  10.227  1.00  0.00     0.007 A 
ATOM     19  C   UNL     1      16.649  33.277   7.904  1.00  0.00     0.000 A 
ATOM     20  C   UNL     1      15.773  35.097   9.240  1.00  0.00     0.000 A 
ATOM     21  C   UNL     1      15.725  34.312   8.085  1.00  0.00     0.000 A 
ENDBRANCH  13  16
ENDBRANCH   1  13
TORSDOF 5
ENDMDL
MODEL 5
REMARK VINA RESULT:    -7.054      3.168      5.321
REMARK INTER + INTRA:          -9.329
REMARK INTER:                  -8.741
REMARK INTRA:                  -0.588
REMARK UNBOUND:                -0.419
REMARK SMILES CN1[C@@H]2CC[C@H]1C[C@@H](OC(=O)C(O)c1ccccc1)C2
REMARK SMILES IDX 10 1 11 2 9 3 8 4 6 5 5 6 7 7 2 8 4 9 3 10 1 11 20 12 12 13
REMARK SMILES IDX 13 14 14 16 15 17 19 18 16 19 18 20 17 21
REMARK H PARENT 13 15
REMARK Flexibility Score: inf
ROOT
ATOM      1  C   UNL     1      19.072  33.514  12.118  1.00  0.00     0.339 C 
ATOM      2  O   UNL     1      20.110  33.353  11.419  1.00  0.00    -0.249 OA
ENDROOT
BRANCH   1   3
ATOM      3  O   UNL     1      19.106  34.311  13.267  1.00  0.00    -0.460 OA
BRANCH   3   4
ATOM      4  C   UNL     1      20.057  34.154  14.322  1.00  0.00     0.179 C 
ATOM      5  C   UNL     1      18.684  33.895  16.512  1.00  0.00     0.060 C 
ATOM      6  C   UNL     1      17.475  34.616  15.899  1.00  0.00     0.021 C 
ATOM      7  C   UNL     1      19.505  33.176  15.403  1.00  0.00     0.064 C 
ATOM      8  N   UNL     1      19.445  34.992  17.113  1.00  0.00    -0.300 NA
ATOM      9  C   UNL     1      18.001  36.026  15.579  1.00  0.00     0.021 C 
ATOM     10  C   UNL     1      19.465  35.994  16.047  1.00  0.00     0.060 C 
ATOM     11  C   UNL     1      20.741  34.649  17.723  1.00  0.00     0.105 C 
ATOM     12  C   UNL     1      20.404  35.558  14.888  1.00  0.00     0.064 C 
ENDBRANCH   3   4
ENDBRANCH   1   3
BRANCH   1  13
ATOM     13  C   UNL     1      17.800  32.793  11.776  1.00  0.00     0.254 C 
BRANCH  13  14
ATOM     14  O   UNL     1      16.885  32.790  12.849  1.00  0.00    -0.377 OA
ATOM     15  H   UNL     1      17.174  32.110  13.516  1.00  0.00     0.212 HD
ENDBRANCH  13  14
BRANCH  13  16
ATOM     16  C   UNL     1      17.187  33.368  10.515  1.00  0.00    -0.008 A 
ATOM     17  C   UNL     1      16.509  34.603  10.567  1.00  0.00     0.007 A 
ATOM     18  C   UNL     1      17.208  32.653   9.300  1.00  0.00     0.007 A 
ATOM     19  C   UNL     1      15.913  35.131   9.417  1.00  0.00     0.000 A 
ATOM     20  C   UNL     1      16.613  33.189   8.153  1.00  0.00     0.000 A 
ATOM     21  C   UNL     1      15.976  34.431   8.208  1.00  0.00     0.000 A 
ENDBRANCH  13  16
ENDBRANCH   1  13
TORSDOF 5
ENDMDL
MODEL 6
REMARK VINA RESULT:    -7.051      3.689      5.754
REMARK INTER + INTRA:          -9.324
REMARK INTER:                  -8.596
REMARK INTRA:                  -0.728
REMARK UNBOUND:                -0.419
REMARK SMILES CN1[C@@H]2CC[C@H]1C[C@@H](OC(=O)C(O)c1ccccc1)C2
REMARK SMILES IDX 10 1 11 2 9 3 8 4 6 5 5 6 7 7 2 8 4 9 3 10 1 11 20 12 12 13
REMARK SMILES IDX 13 14 14 16 15 17 19 18 16 19 18 20 17 21
REMARK H PARENT 13 15
REMARK Flexibility Score: inf
ROOT
ATOM      1  C   UNL     1      19.561  32.529  13.757  1.00  0.00     0.339 C 
ATOM      2  O   UNL     1      19.906  31.328  13.935  1.00  0.00    -0.249 OA
ENDROOT
BRANCH   1   3
ATOM      3  O   UNL     1      18.753  33.184  14.693  1.00  0.00    -0.460 OA
BRANCH   3   4
ATOM      4  C   UNL     1      19.249  34.080  15.689  1.00  0.00     0.179 C 
ATOM      5  C   UNL     1      17.274  34.533  17.313  1.00  0.00     0.060 C 
ATOM      6  C   UNL     1      16.239  34.170  16.238  1.00  0.00     0.021 C 
ATOM      7  C   UNL     1      18.602  33.761  17.071  1.00  0.00     0.064 C 
ATOM      8  N   UNL     1      17.450  35.974  17.119  1.00  0.00    -0.300 NA
ATOM      9  C   UNL     1      16.471  35.209  15.128  1.00  0.00     0.021 C 
ATOM     10  C   UNL     1      17.610  36.087  15.669  1.00  0.00     0.060 C 
ATOM     11  C   UNL     1      18.466  36.639  17.951  1.00  0.00     0.105 C 
ATOM     12  C   UNL     1      18.992  35.537  15.215  1.00  0.00     0.064 C 
ENDBRANCH   3   4
ENDBRANCH   1   3
BRANCH   1  13
ATOM     13  C   UNL     1      19.947  33.257  12.501  1.00  0.00     0.254 C 
BRANCH  13  14
ATOM     14  O   UNL     1      21.083  32.693  11.885  1.00  0.00    -0.377 OA
ATOM     15  H   UNL     1      21.491  32.033  12.508  1.00  0.00     0.212 HD
ENDBRANCH  13  14
BRANCH  13  16
ATOM     16  C   UNL     1      18.770  33.332  11.550  1.00  0.00    -0.008 A 
ATOM     17  C   UNL     1      18.697  32.449  10.454  1.00  0.00     0.007 A 
ATOM     18  C   UNL     1      17.780  34.328  11.689  1.00  0.00     0.007 A 
ATOM     19  C   UNL     1      17.632  32.527   9.551  1.00  0.00     0.000 A 
ATOM     20  C   UNL     1      16.715  34.397  10.785  1.00  0.00     0.000 A 
ATOM     21  C   UNL     1      16.634  33.492   9.724  1.00  0.00     0.000 A 
ENDBRANCH  13  16
ENDBRANCH   1  13
TORSDOF 5
ENDMDL
MODEL 7
REMARK VINA RESULT:    -6.944      3.775      8.072
REMARK INTER + INTRA:          -9.190
REMARK INTER:                  -8.527
REMARK INTRA:                  -0.663
REMARK UNBOUND:                -0.419
REMARK SMILES CN1[C@@H]2CC[C@H]1C[C@@H](OC(=O)C(O)c1ccccc1)C2
REMARK SMILES IDX 10 1 11 2 9 3 8 4 6 5 5 6 7 7 2 8 4 9 3 10 1 11 20 12 12 13
REMARK SMILES IDX 13 14 14 16 15 17 19 18 16 19 18 20 17 21
REMARK H PARENT 13 15
REMARK Flexibility Score: inf
ROOT
ATOM      1  C   UNL     1      18.731  35.012  15.011  1.00  0.00     0.339 C 
ATOM      2  O   UNL     1      19.477  36.010  15.210  1.00  0.00    -0.249 OA
ENDROOT
BRANCH   1   3
ATOM      3  O   UNL     1      18.248  34.729  13.729  1.00  0.00    -0.460 OA
BRANCH   3   4
ATOM      4  C   UNL     1      18.800  33.731  12.869  1.00  0.00     0.179 C 
ATOM      5  C   UNL     1      17.606  33.998  10.578  1.00  0.00     0.060 C 
ATOM      6  C   UNL     1      16.393  34.676  11.232  1.00  0.00     0.021 C 
ATOM      7  C   UNL     1      18.892  34.270  11.409  1.00  0.00     0.064 C 
ATOM      8  N   UNL     1      17.240  32.580  10.609  1.00  0.00    -0.300 NA
ATOM      9  C   UNL     1      15.831  33.604  12.182  1.00  0.00     0.021 C 
ATOM     10  C   UNL     1      16.763  32.399  11.981  1.00  0.00     0.060 C 
ATOM     11  C   UNL     1      18.247  31.621  10.127  1.00  0.00     0.105 C 
ATOM     12  C   UNL     1      17.944  32.442  12.992  1.00  0.00     0.064 C 
ENDBRANCH   3   4
ENDBRANCH   1   3
BRANCH   1  13
ATOM     13  C   UNL     1      18.284  34.151  16.158  1.00  0.00     0.254 C 
BRANCH  13  14
ATOM     14  O   UNL     1      19.276  34.029  17.152  1.00  0.00    -0.377 OA
ATOM     15  H   UNL     1      18.835  33.861  18.028  1.00  0.00     0.212 HD
ENDBRANCH  13  14
BRANCH  13  16
ATOM     16  C   UNL     1      16.977  34.665  16.728  1.00  0.00    -0.008 A 
ATOM     17  C   UNL     1      15.762  34.356  16.082  1.00  0.00     0.007 A 
ATOM     18  C   UNL     1      16.955  35.520  17.848  1.00  0.00     0.007 A 
ATOM     19  C   UNL     1      14.551  34.849  16.580  1.00  0.00     0.000 A 
ATOM     20  C   UNL     1      15.739  36.007  18.344  1.00  0.00     0.000 A 
ATOM     21  C   UNL     1      14.539  35.663  17.717  1.00  0.00     0.000 A 
ENDBRANCH  13  16
ENDBRANCH   1  13
TORSDOF 5
ENDMDL
MODEL 8
REMARK VINA RESULT:    -6.918      4.685      6.405
REMARK INTER + INTRA:          -9.156
REMARK INTER:                  -8.138
REMARK INTRA:                  -1.019
REMARK UNBOUND:                -0.419
REMARK SMILES CN1[C@@H]2CC[C@H]1C[C@@H](OC(=O)C(O)c1ccccc1)C2
REMARK SMILES IDX 10 1 11 2 9 3 8 4 6 5 5 6 7 7 2 8 4 9 3 10 1 11 20 12 12 13
REMARK SMILES IDX 13 14 14 16 15 17 19 18 16 19 18 20 17 21
REMARK H PARENT 13 15
REMARK Flexibility Score: inf
ROOT
ATOM      1  C   UNL     1      21.088  33.863  12.706  1.00  0.00     0.339 C 
ATOM      2  O   UNL     1      22.200  34.128  12.172  1.00  0.00    -0.249 OA
ENDROOT
BRANCH   1   3
ATOM      3  O   UNL     1      20.642  34.585  13.818  1.00  0.00    -0.460 OA
BRANCH   3   4
ATOM      4  C   UNL     1      21.124  34.384  15.148  1.00  0.00     0.179 C 
ATOM      5  C   UNL     1      19.045  34.482  16.702  1.00  0.00     0.060 C 
ATOM      6  C   UNL     1      18.255  35.309  15.678  1.00  0.00     0.021 C 
ATOM      7  C   UNL     1      20.083  33.575  15.981  1.00  0.00     0.064 C 
ATOM      8  N   UNL     1      19.704  35.510  17.510  1.00  0.00    -0.300 NA
ATOM      9  C   UNL     1      19.070  36.606  15.535  1.00  0.00     0.021 C 
ATOM     10  C   UNL     1      20.251  36.414  16.499  1.00  0.00     0.060 C 
ATOM     11  C   UNL     1      20.632  35.044  18.554  1.00  0.00     0.105 C 
ATOM     12  C   UNL     1      21.461  35.767  15.767  1.00  0.00     0.064 C 
ENDBRANCH   3   4
ENDBRANCH   1   3
BRANCH   1  13
ATOM     13  C   UNL     1      20.255  32.716  12.209  1.00  0.00     0.254 C 
BRANCH  13  14
ATOM     14  O   UNL     1      20.397  31.566  13.012  1.00  0.00    -0.377 OA
ATOM     15  H   UNL     1      21.317  31.550  13.391  1.00  0.00     0.212 HD
ENDBRANCH  13  14
BRANCH  13  16
ATOM     16  C   UNL     1      18.805  33.134  12.075  1.00  0.00    -0.008 A 
ATOM     17  C   UNL     1      18.410  33.959  11.002  1.00  0.00     0.007 A 
ATOM     18  C   UNL     1      17.850  32.783  13.052  1.00  0.00     0.007 A 
ATOM     19  C   UNL     1      17.081  34.377  10.883  1.00  0.00     0.000 A 
ATOM     20  C   UNL     1      16.521  33.202  12.924  1.00  0.00     0.000 A 
ATOM     21  C   UNL     1      16.134  33.988  11.836  1.00  0.00     0.000 A 
ENDBRANCH  13  16
ENDBRANCH   1  13
TORSDOF 5
ENDMDL
MODEL 9
REMARK VINA RESULT:    -6.874      5.306      7.499
REMARK INTER + INTRA:          -9.101
REMARK INTER:                  -8.398
REMARK INTRA:                  -0.703
REMARK UNBOUND:                -0.419
REMARK SMILES CN1[C@@H]2CC[C@H]1C[C@@H](OC(=O)C(O)c1ccccc1)C2
REMARK SMILES IDX 10 1 11 2 9 3 8 4 6 5 5 6 7 7 2 8 4 9 3 10 1 11 20 12 12 13
REMARK SMILES IDX 13 14 14 16 15 17 19 18 16 19 18 20 17 21
REMARK H PARENT 13 15
REMARK Flexibility Score: inf
ROOT
ATOM      1  C   UNL     1      20.458  32.720  12.203  1.00  0.00     0.339 C 
ATOM      2  O   UNL     1      19.924  32.833  11.066  1.00  0.00    -0.249 OA
ENDROOT
BRANCH   1   3
ATOM      3  O   UNL     1      21.752  33.200  12.433  1.00  0.00    -0.460 OA
BRANCH   3   4
ATOM      4  C   UNL     1      22.041  34.449  13.063  1.00  0.00     0.179 C 
ATOM      5  C   UNL     1      24.353  35.209  12.155  1.00  0.00     0.060 C 
ATOM      6  C   UNL     1      24.746  33.767  11.805  1.00  0.00     0.021 C 
ATOM      7  C   UNL     1      22.810  35.384  12.080  1.00  0.00     0.064 C 
ATOM      8  N   UNL     1      24.840  35.352  13.529  1.00  0.00    -0.300 NA
ATOM      9  C   UNL     1      24.743  33.037  13.159  1.00  0.00     0.021 C 
ATOM     10  C   UNL     1      24.360  34.128  14.171  1.00  0.00     0.060 C 
ATOM     11  C   UNL     1      24.539  36.621  14.214  1.00  0.00     0.105 C 
ATOM     12  C   UNL     1      22.820  34.172  14.377  1.00  0.00     0.064 C 
ENDBRANCH   3   4
ENDBRANCH   1   3
BRANCH   1  13
ATOM     13  C   UNL     1      19.748  31.999  13.314  1.00  0.00     0.254 C 
BRANCH  13  14
ATOM     14  O   UNL     1      20.647  31.393  14.216  1.00  0.00    -0.377 OA
ATOM     15  H   UNL     1      21.566  31.444  13.837  1.00  0.00     0.212 HD
ENDBRANCH  13  14
BRANCH  13  16
ATOM     16  C   UNL     1      18.786  32.932  14.021  1.00  0.00    -0.008 A 
ATOM     17  C   UNL     1      17.541  33.232  13.431  1.00  0.00     0.007 A 
ATOM     18  C   UNL     1      19.143  33.578  15.222  1.00  0.00     0.007 A 
ATOM     19  C   UNL     1      16.655  34.115  14.057  1.00  0.00     0.000 A 
ATOM     20  C   UNL     1      18.251  34.457  15.846  1.00  0.00     0.000 A 
ATOM     21  C   UNL     1      17.004  34.717  15.270  1.00  0.00     0.000 A 
ENDBRANCH  13  16
ENDBRANCH   1  13
TORSDOF 5
ENDMDL
MODEL 10
REMARK VINA RESULT:    -6.851      5.209      7.315
REMARK INTER + INTRA:          -9.072
REMARK INTER:                  -8.155
REMARK INTRA:                  -0.917
REMARK UNBOUND:                -0.419
REMARK SMILES CN1[C@@H]2CC[C@H]1C[C@@H](OC(=O)C(O)c1ccccc1)C2
REMARK SMILES IDX 10 1 11 2 9 3 8 4 6 5 5 6 7 7 2 8 4 9 3 10 1 11 20 12 12 13
REMARK SMILES IDX 13 14 14 16 15 17 19 18 16 19 18 20 17 21
REMARK H PARENT 13 15
REMARK Flexibility Score: inf
ROOT
ATOM      1  C   UNL     1      20.350  32.729  12.212  1.00  0.00     0.339 C 
ATOM      2  O   UNL     1      19.877  33.038  11.084  1.00  0.00    -0.249 OA
ENDROOT
BRANCH   1   3
ATOM      3  O   UNL     1      21.688  32.998  12.521  1.00  0.00    -0.460 OA
BRANCH   3   4
ATOM      4  C   UNL     1      22.251  34.310  12.560  1.00  0.00     0.179 C 
ATOM      5  C   UNL     1      24.448  34.123  13.933  1.00  0.00     0.060 C 
ATOM      6  C   UNL     1      23.951  32.860  14.651  1.00  0.00     0.021 C 
ATOM      7  C   UNL     1      23.807  34.230  12.520  1.00  0.00     0.064 C 
ATOM      8  N   UNL     1      23.985  35.199  14.812  1.00  0.00    -0.300 NA
ATOM      9  C   UNL     1      22.700  33.330  15.414  1.00  0.00     0.021 C 
ATOM     10  C   UNL     1      22.595  34.825  15.076  1.00  0.00     0.060 C 
ATOM     11  C   UNL     1      24.224  36.580  14.359  1.00  0.00     0.105 C 
ATOM     12  C   UNL     1      21.709  35.044  13.817  1.00  0.00     0.064 C 
ENDBRANCH   3   4
ENDBRANCH   1   3
BRANCH   1  13
ATOM     13  C   UNL     1      19.510  31.996  13.219  1.00  0.00     0.254 C 
BRANCH  13  14
ATOM     14  O   UNL     1      20.294  31.273  14.142  1.00  0.00    -0.377 OA
ATOM     15  H   UNL     1      21.033  30.821  13.651  1.00  0.00     0.212 HD
ENDBRANCH  13  14
BRANCH  13  16
ATOM     16  C   UNL     1      18.562  32.952  13.913  1.00  0.00    -0.008 A 
ATOM     17  C   UNL     1      18.866  33.425  15.206  1.00  0.00     0.007 A 
ATOM     18  C   UNL     1      17.332  33.316  13.327  1.00  0.00     0.007 A 
ATOM     19  C   UNL     1      17.985  34.284  15.871  1.00  0.00     0.000 A 
ATOM     20  C   UNL     1      16.457  34.179  13.996  1.00  0.00     0.000 A 
ATOM     21  C   UNL     1      16.787  34.671  15.261  1.00  0.00     0.000 A 
ENDBRANCH  13  16
ENDBRANCH   1  13
TORSDOF 5
ENDMDL
MODEL 11
REMARK VINA RESULT:    -6.828      5.559      7.735
REMARK INTER + INTRA:          -9.043
REMARK INTER:                  -8.123
REMARK INTRA:                  -0.920
REMARK UNBOUND:                -0.419
REMARK SMILES CN1[C@@H]2CC[C@H]1C[C@@H](OC(=O)C(O)c1ccccc1)C2
REMARK SMILES IDX 10 1 11 2 9 3 8 4 6 5 5 6 7 7 2 8 4 9 3 10 1 11 20 12 12 13
REMARK SMILES IDX 13 14 14 16 15 17 19 18 16 19 18 20 17 21
REMARK H PARENT 13 15
REMARK Flexibility Score: inf
ROOT
ATOM      1  C   UNL     1      20.828  32.927  12.808  1.00  0.00     0.339 C 
ATOM      2  O   UNL     1      21.044  32.149  11.839  1.00  0.00    -0.249 OA
ENDROOT
BRANCH   1   3
ATOM      3  O   UNL     1      21.370  34.217  12.821  1.00  0.00    -0.460 OA
BRANCH   3   4
ATOM      4  C   UNL     1      22.751  34.506  12.598  1.00  0.00     0.179 C 
ATOM      5  C   UNL     1      23.722  35.243  14.892  1.00  0.00     0.060 C 
ATOM      6  C   UNL     1      22.335  35.659  15.403  1.00  0.00     0.021 C 
ATOM      7  C   UNL     1      23.594  34.100  13.846  1.00  0.00     0.064 C 
ATOM      8  N   UNL     1      24.224  36.475  14.278  1.00  0.00    -0.300 NA
ATOM      9  C   UNL     1      21.903  36.783  14.444  1.00  0.00     0.021 C 
ATOM     10  C   UNL     1      23.087  36.921  13.473  1.00  0.00     0.060 C 
ATOM     11  C   UNL     1      25.527  36.397  13.597  1.00  0.00     0.105 C 
ATOM     12  C   UNL     1      22.889  36.008  12.230  1.00  0.00     0.064 C 
ENDBRANCH   3   4
ENDBRANCH   1   3
BRANCH   1  13
ATOM     13  C   UNL     1      20.050  32.460  14.006  1.00  0.00     0.254 C 
BRANCH  13  14
ATOM     14  O   UNL     1      20.838  32.429  15.174  1.00  0.00    -0.377 OA
ATOM     15  H   UNL     1      21.013  31.480  15.420  1.00  0.00     0.212 HD
ENDBRANCH  13  14
BRANCH  13  16
ATOM     16  C   UNL     1      18.803  33.301  14.188  1.00  0.00    -0.008 A 
ATOM     17  C   UNL     1      17.676  33.068  13.375  1.00  0.00     0.007 A 
ATOM     18  C   UNL     1      18.774  34.375  15.103  1.00  0.00     0.007 A 
ATOM     19  C   UNL     1      16.529  33.857  13.513  1.00  0.00     0.000 A 
ATOM     20  C   UNL     1      17.622  35.158  15.238  1.00  0.00     0.000 A 
ATOM     21  C   UNL     1      16.497  34.893  14.453  1.00  0.00     0.000 A 
ENDBRANCH  13  16
ENDBRANCH   1  13
TORSDOF 5
ENDMDL
MODEL 12
REMARK VINA RESULT:    -6.820      4.917      7.334
REMARK INTER + INTRA:          -9.033
REMARK INTER:                  -8.706
REMARK INTRA:                  -0.327
REMARK UNBOUND:                -0.419
REMARK SMILES CN1[C@@H]2CC[C@H]1C[C@@H](OC(=O)C(O)c1ccccc1)C2
REMARK SMILES IDX 10 1 11 2 9 3 8 4 6 5 5 6 7 7 2 8 4 9 3 10 1 11 20 12 12 13
REMARK SMILES IDX 13 14 14 16 15 17 19 18 16 19 18 20 17 21
REMARK H PARENT 13 15
REMARK Flexibility Score: inf
ROOT
ATOM      1  C   UNL     1      21.080  33.574  12.729  1.00  0.00     0.339 C 
ATOM      2  O   UNL     1      21.308  32.500  12.108  1.00  0.00    -0.249 OA
ENDROOT
BRANCH   1   3
ATOM      3  O   UNL     1      21.978  34.645  12.653  1.00  0.00    -0.460 OA
BRANCH   3   4
ATOM      4  C   UNL     1      23.263  34.655  13.277  1.00  0.00     0.179 C 
ATOM      5  C   UNL     1      23.924  37.153  13.548  1.00  0.00     0.060 C 
ATOM      6  C   UNL     1      22.989  37.576  12.405  1.00  0.00     0.021 C 
ATOM      7  C   UNL     1      23.382  35.872  14.244  1.00  0.00     0.064 C 
ATOM      8  N   UNL     1      25.186  36.889  12.853  1.00  0.00    -0.300 NA
ATOM      9  C   UNL     1      23.548  36.845  11.172  1.00  0.00     0.021 C 
ATOM     10  C   UNL     1      24.763  36.075  11.713  1.00  0.00     0.060 C 
ATOM     11  C   UNL     1      26.297  36.366  13.665  1.00  0.00     0.105 C 
ATOM     12  C   UNL     1      24.351  34.647  12.170  1.00  0.00     0.064 C 
ENDBRANCH   3   4
ENDBRANCH   1   3
BRANCH   1  13
ATOM     13  C   UNL     1      19.880  33.701  13.624  1.00  0.00     0.254 C 
BRANCH  13  14
ATOM     14  O   UNL     1      20.004  34.772  14.533  1.00  0.00    -0.377 OA
ATOM     15  H   UNL     1      19.196  34.797  15.113  1.00  0.00     0.212 HD
ENDBRANCH  13  14
BRANCH  13  16
ATOM     16  C   UNL     1      18.613  33.806  12.800  1.00  0.00    -0.008 A 
ATOM     17  C   UNL     1      18.696  34.102  11.424  1.00  0.00     0.007 A 
ATOM     18  C   UNL     1      17.341  33.697  13.398  1.00  0.00     0.007 A 
ATOM     19  C   UNL     1      17.533  34.231  10.657  1.00  0.00     0.000 A 
ATOM     20  C   UNL     1      16.182  33.824  12.625  1.00  0.00     0.000 A 
ATOM     21  C   UNL     1      16.277  34.079  11.254  1.00  0.00     0.000 A 
ENDBRANCH  13  16
ENDBRANCH   1  13
TORSDOF 5
ENDMDL
MODEL 13
REMARK VINA RESULT:    -6.805      5.237      7.365
REMARK INTER + INTRA:          -9.013
REMARK INTER:                  -8.261
REMARK INTRA:                  -0.752
REMARK UNBOUND:                -0.419
REMARK SMILES CN1[C@@H]2CC[C@H]1C[C@@H](OC(=O)C(O)c1ccccc1)C2
REMARK SMILES IDX 10 1 11 2 9 3 8 4 6 5 5 6 7 7 2 8 4 9 3 10 1 11 20 12 12 13
REMARK SMILES IDX 13 14 14 16 15 17 19 18 16 19 18 20 17 21
REMARK H PARENT 13 15
REMARK Flexibility Score: inf
ROOT
ATOM      1  C   UNL     1      20.661  32.933  12.558  1.00  0.00     0.339 C 
ATOM      2  O   UNL     1      20.379  33.484  11.459  1.00  0.00    -0.249 OA
ENDROOT
BRANCH   1   3
ATOM      3  O   UNL     1      21.942  33.055  13.108  1.00  0.00    -0.460 OA
BRANCH   3   4
ATOM      4  C   UNL     1      22.256  33.886  14.227  1.00  0.00     0.179 C 
ATOM      5  C   UNL     1      22.856  36.220  13.258  1.00  0.00     0.060 C 
ATOM      6  C   UNL     1      23.229  35.616  11.897  1.00  0.00     0.021 C 
ATOM      7  C   UNL     1      21.779  35.347  13.962  1.00  0.00     0.064 C 
ATOM      8  N   UNL     1      24.127  36.189  13.984  1.00  0.00    -0.300 NA
ATOM      9  C   UNL     1      24.406  34.677  12.212  1.00  0.00     0.021 C 
ATOM     10  C   UNL     1      24.614  34.834  13.726  1.00  0.00     0.060 C 
ATOM     11  C   UNL     1      24.103  36.627  15.390  1.00  0.00     0.105 C 
ATOM     12  C   UNL     1      23.779  33.782  14.509  1.00  0.00     0.064 C 
ENDBRANCH   3   4
ENDBRANCH   1   3
BRANCH   1  13
ATOM     13  C   UNL     1      19.653  32.069  13.263  1.00  0.00     0.254 C 
BRANCH  13  14
ATOM     14  O   UNL     1      20.242  31.274  14.266  1.00  0.00    -0.377 OA
ATOM     15  H   UNL     1      20.937  31.810  14.735  1.00  0.00     0.212 HD
ENDBRANCH  13  14
BRANCH  13  16
ATOM     16  C   UNL     1      18.520  32.915  13.807  1.00  0.00    -0.008 A 
ATOM     17  C   UNL     1      17.362  33.117  13.030  1.00  0.00     0.007 A 
ATOM     18  C   UNL     1      18.633  33.578  15.047  1.00  0.00     0.007 A 
ATOM     19  C   UNL     1      16.320  33.920  13.508  1.00  0.00     0.000 A 
ATOM     20  C   UNL     1      17.586  34.377  15.520  1.00  0.00     0.000 A 
ATOM     21  C   UNL     1      16.427  34.539  14.758  1.00  0.00     0.000 A 
ENDBRANCH  13  16
ENDBRANCH   1  13
TORSDOF 5
ENDMDL
MODEL 14
REMARK VINA RESULT:    -6.789      4.312      6.689
REMARK INTER + INTRA:          -8.994
REMARK INTER:                  -8.317
REMARK INTRA:                  -0.677
REMARK UNBOUND:                -0.419
REMARK SMILES CN1[C@@H]2CC[C@H]1C[C@@H](OC(=O)C(O)c1ccccc1)C2
REMARK SMILES IDX 10 1 11 2 9 3 8 4 6 5 5 6 7 7 2 8 4 9 3 10 1 11 20 12 12 13
REMARK SMILES IDX 13 14 14 16 15 17 19 18 16 19 18 20 17 21
REMARK H PARENT 13 15
REMARK Flexibility Score: inf
ROOT
ATOM      1  C   UNL     1      20.510  32.556  12.312  1.00  0.00     0.339 C 
ATOM      2  O   UNL     1      20.200  31.620  13.100  1.00  0.00    -0.249 OA
ENDROOT
BRANCH   1   3
ATOM      3  O   UNL     1      21.813  33.065  12.290  1.00  0.00    -0.460 OA
BRANCH   3   4
ATOM      4  C   UNL     1      22.153  34.408  12.641  1.00  0.00     0.179 C 
ATOM      5  C   UNL     1      24.599  34.340  13.511  1.00  0.00     0.060 C 
ATOM      6  C   UNL     1      24.483  32.852  13.875  1.00  0.00     0.021 C 
ATOM      7  C   UNL     1      23.655  34.684  12.325  1.00  0.00     0.064 C 
ATOM      8  N   UNL     1      24.175  35.008  14.743  1.00  0.00    -0.300 NA
ATOM      9  C   UNL     1      23.371  32.812  14.938  1.00  0.00     0.021 C 
ATOM     10  C   UNL     1      22.956  34.282  15.101  1.00  0.00     0.060 C 
ATOM     11  C   UNL     1      24.084  36.477  14.707  1.00  0.00     0.105 C 
ATOM     12  C   UNL     1      21.791  34.636  14.134  1.00  0.00     0.064 C 
ENDBRANCH   3   4
ENDBRANCH   1   3
BRANCH   1  13
ATOM     13  C   UNL     1      19.471  33.196  11.436  1.00  0.00     0.254 C 
BRANCH  13  14
ATOM     14  O   UNL     1      19.189  32.421  10.292  1.00  0.00    -0.377 OA
ATOM     15  H   UNL     1      18.297  31.994  10.405  1.00  0.00     0.212 HD
ENDBRANCH  13  14
BRANCH  13  16
ATOM     16  C   UNL     1      18.219  33.498  12.234  1.00  0.00    -0.008 A 
ATOM     17  C   UNL     1      16.961  33.096  11.741  1.00  0.00     0.007 A 
ATOM     18  C   UNL     1      18.275  34.250  13.425  1.00  0.00     0.007 A 
ATOM     19  C   UNL     1      15.794  33.394  12.453  1.00  0.00     0.000 A 
ATOM     20  C   UNL     1      17.105  34.542  14.134  1.00  0.00     0.000 A 
ATOM     21  C   UNL     1      15.867  34.105  13.655  1.00  0.00     0.000 A 
ENDBRANCH  13  16
ENDBRANCH   1  13
TORSDOF 5
ENDMDL
MODEL 15
REMARK VINA RESULT:    -6.634      5.684      7.793
REMARK INTER + INTRA:          -8.798
REMARK INTER:                  -7.979
REMARK INTRA:                  -0.819
REMARK UNBOUND:                -0.419
REMARK SMILES CN1[C@@H]2CC[C@H]1C[C@@H](OC(=O)C(O)c1ccccc1)C2
REMARK SMILES IDX 10 1 11 2 9 3 8 4 6 5 5 6 7 7 2 8 4 9 3 10 1 11 20 12 12 13
REMARK SMILES IDX 13 14 14 16 15 17 19 18 16 19 18 20 17 21
REMARK H PARENT 13 15
REMARK Flexibility Score: inf
ROOT
ATOM      1  C   UNL     1      18.151  33.628  13.646  1.00  0.00     0.339 C 
ATOM      2  O   UNL     1      17.980  32.379  13.698  1.00  0.00    -0.249 OA
ENDROOT
BRANCH   1   3
ATOM      3  O   UNL     1      19.419  34.183  13.850  1.00  0.00    -0.460 OA
BRANCH   3   4
ATOM      4  C   UNL     1      20.475  33.525  14.553  1.00  0.00     0.179 C 
ATOM      5  C   UNL     1      20.932  34.946  16.679  1.00  0.00     0.060 C 
ATOM      6  C   UNL     1      20.341  36.205  16.027  1.00  0.00     0.021 C 
ATOM      7  C   UNL     1      20.267  33.669  16.092  1.00  0.00     0.064 C 
ATOM      8  N   UNL     1      22.348  35.027  16.314  1.00  0.00    -0.300 NA
ATOM      9  C   UNL     1      21.254  36.463  14.815  1.00  0.00     0.021 C 
ATOM     10  C   UNL     1      22.297  35.337  14.885  1.00  0.00     0.060 C 
ATOM     11  C   UNL     1      23.205  33.900  16.717  1.00  0.00     0.105 C 
ATOM     12  C   UNL     1      21.830  34.102  14.063  1.00  0.00     0.064 C 
ENDBRANCH   3   4
ENDBRANCH   1   3
BRANCH   1  13
ATOM     13  C   UNL     1      16.984  34.552  13.441  1.00  0.00     0.254 C 
BRANCH  13  14
ATOM     14  O   UNL     1      16.155  34.136  12.379  1.00  0.00    -0.377 OA
ATOM     15  H   UNL     1      15.569  33.398  12.698  1.00  0.00     0.212 HD
ENDBRANCH  13  14
BRANCH  13  16
ATOM     16  C   UNL     1      16.206  34.716  14.731  1.00  0.00    -0.008 A 
ATOM     17  C   UNL     1      16.848  35.229  15.876  1.00  0.00     0.007 A 
ATOM     18  C   UNL     1      14.866  34.286  14.836  1.00  0.00     0.007 A 
ATOM     19  C   UNL     1      16.150  35.358  17.081  1.00  0.00     0.000 A 
ATOM     20  C   UNL     1      14.173  34.422  16.044  1.00  0.00     0.000 A 
ATOM     21  C   UNL     1      14.810  34.967  17.162  1.00  0.00     0.000 A 
ENDBRANCH  13  16
ENDBRANCH   1  13
TORSDOF 5
ENDMDL
