MODEL 1
REMARK VINA RESULT:    -8.979      0.000      0.000
REMARK INTER + INTRA:         -13.143
REMARK INTER:                 -12.128
REMARK INTRA:                  -1.015
REMARK UNBOUND:                -1.015
REMARK SMILES COc1cc2nccc(Oc3ccc(NC(=O)Nc4cc(C)on4)c(Cl)c3)c2cc1OC
REMARK SMILES IDX 11 1 27 2 25 3 26 4 14 5 13 6 12 7 10 8 9 9 3 10 30 11 4 12
REMARK SMILES IDX 29 13 5 14 28 15 6 16 7 17 8 18 2 19 1 20 31 21 32 22 15 23
REMARK SMILES IDX 16 24 17 26 18 27 19 29 24 30 20 31 23 32 21 33 22 34
REMARK H PARENT 15 25 18 28
REMARK Flexibility Score: inf
ROOT
ATOM      1  C   UNL     1      17.186  34.260  16.120  1.00  0.00     0.129 A 
ATOM      2  C   UNL     1      18.318  34.193  15.303  1.00  0.00     0.069 A 
ATOM      3  C   UNL     1      18.194  34.178  13.909  1.00  0.00     0.068 A 
ATOM      4  Cl  UNL     1      19.655  34.087  12.934  1.00  0.00    -0.082 Cl
ATOM      5  C   UNL     1      16.918  34.208  13.314  1.00  0.00     0.061 A 
ATOM      6  C   UNL     1      15.780  34.269  14.138  1.00  0.00     0.031 A 
ATOM      7  C   UNL     1      15.911  34.285  15.527  1.00  0.00     0.049 A 
ENDROOT
BRANCH   1   8
ATOM      8  O   UNL     1      17.365  34.292  17.512  1.00  0.00    -0.457 OA
BRANCH   8   9
ATOM      9  C   UNL     1      17.826  35.405  18.229  1.00  0.00     0.138 A 
ATOM     10  C   UNL     1      21.902  36.049  19.183  1.00  0.00     0.162 A 
ATOM     11  C   UNL     1      21.527  34.867  18.525  1.00  0.00     0.161 A 
ATOM     12  C   UNL     1      20.918  36.988  19.543  1.00  0.00     0.079 A 
ATOM     13  C   UNL     1      20.171  34.632  18.226  1.00  0.00     0.064 A 
ATOM     14  C   UNL     1      19.574  36.762  19.235  1.00  0.00     0.078 A 
ATOM     15  C   UNL     1      19.191  35.586  18.550  1.00  0.00     0.047 A 
ATOM     16  N   UNL     1      18.635  37.673  19.603  1.00  0.00    -0.256 NA
ATOM     17  C   UNL     1      17.317  37.493  19.334  1.00  0.00     0.115 A 
ATOM     18  C   UNL     1      16.890  36.355  18.650  1.00  0.00     0.068 A 
BRANCH  10  19
ATOM     19  O   UNL     1      23.263  36.253  19.463  1.00  0.00    -0.493 OA
ATOM     20  C   UNL     1      23.865  36.055  20.737  1.00  0.00     0.278 C 
ENDBRANCH  10  19
BRANCH  11  21
ATOM     21  O   UNL     1      22.534  33.952  18.181  1.00  0.00    -0.493 OA
ATOM     22  C   UNL     1      22.468  33.057  17.076  1.00  0.00     0.278 C 
ENDBRANCH  11  21
ENDBRANCH   8   9
ENDBRANCH   1   8
BRANCH   5  23
ATOM     23  N   UNL     1      16.784  34.234  11.882  1.00  0.00    -0.306 N 
ATOM     24  C   UNL     1      16.884  33.068  11.051  1.00  0.00     0.324 C 
ATOM     25  H   UNL     1      16.666  35.158  11.409  1.00  0.00     0.171 HD
ATOM     26  O   UNL     1      17.298  31.980  11.535  1.00  0.00    -0.248 OA
ATOM     27  N   UNL     1      16.538  33.160   9.662  1.00  0.00    -0.289 N 
ATOM     28  H   UNL     1      16.123  34.055   9.314  1.00  0.00     0.173 HD
BRANCH  27  29
ATOM     29  C   UNL     1      16.754  32.106   8.713  1.00  0.00     0.177 A 
ATOM     30  N   UNL     1      15.893  31.097   8.475  1.00  0.00    -0.062 NA
ATOM     31  C   UNL     1      17.885  31.963   7.938  1.00  0.00     0.095 A 
ATOM     32  O   UNL     1      16.454  30.338   7.578  1.00  0.00    -0.360 OA
ATOM     33  C   UNL     1      17.630  30.807   7.229  1.00  0.00     0.135 A 
ATOM     34  C   UNL     1      18.532  30.162   6.231  1.00  0.00     0.091 C 
ENDBRANCH  27  29
ENDBRANCH   5  23
TORSDOF 6
ENDMDL
MODEL 2
REMARK VINA RESULT:    -8.881      4.224      6.142
REMARK INTER + INTRA:         -13.011
REMARK INTER:                 -12.544
REMARK INTRA:                  -0.468
REMARK UNBOUND:                -1.015
REMARK SMILES COc1cc2nccc(Oc3ccc(NC(=O)Nc4cc(C)on4)c(Cl)c3)c2cc1OC
REMARK SMILES IDX 11 1 27 2 25 3 26 4 14 5 13 6 12 7 10 8 9 9 3 10 30 11 4 12
REMARK SMILES IDX 29 13 5 14 28 15 6 16 7 17 8 18 2 19 1 20 31 21 32 22 15 23
REMARK SMILES IDX 16 24 17 26 18 27 19 29 24 30 20 31 23 32 21 33 22 34
REMARK H PARENT 15 25 18 28
REMARK Flexibility Score: inf
ROOT
ATOM      1  C   UNL     1      17.556  33.989  12.977  1.00  0.00     0.129 A 
ATOM      2  C   UNL     1      18.087  33.024  13.838  1.00  0.00     0.069 A 
ATOM      3  C   UNL     1      19.255  32.331  13.502  1.00  0.00     0.068 A 
ATOM      4  Cl  UNL     1      19.871  31.124  14.624  1.00  0.00    -0.082 Cl
ATOM      5  C   UNL     1      19.897  32.583  12.274  1.00  0.00     0.061 A 
ATOM      6  C   UNL     1      19.357  33.550  11.406  1.00  0.00     0.031 A 
ATOM      7  C   UNL     1      18.193  34.239  11.748  1.00  0.00     0.049 A 
ENDROOT
BRANCH   1   8
ATOM      8  O   UNL     1      16.394  34.671  13.370  1.00  0.00    -0.457 OA
BRANCH   8   9
ATOM      9  C   UNL     1      15.897  34.706  14.681  1.00  0.00     0.138 A 
ATOM     10  C   UNL     1      17.924  36.568  17.901  1.00  0.00     0.162 A 
ATOM     11  C   UNL     1      18.535  36.519  16.638  1.00  0.00     0.161 A 
ATOM     12  C   UNL     1      16.663  35.973  18.088  1.00  0.00     0.079 A 
ATOM     13  C   UNL     1      17.881  35.880  15.568  1.00  0.00     0.064 A 
ATOM     14  C   UNL     1      16.007  35.351  17.022  1.00  0.00     0.078 A 
ATOM     15  C   UNL     1      16.604  35.319  15.742  1.00  0.00     0.047 A 
ATOM     16  N   UNL     1      14.795  34.769  17.224  1.00  0.00    -0.256 NA
ATOM     17  C   UNL     1      14.123  34.145  16.223  1.00  0.00     0.115 A 
ATOM     18  C   UNL     1      14.665  34.097  14.939  1.00  0.00     0.068 A 
BRANCH  10  19
ATOM     19  O   UNL     1      18.604  37.216  18.945  1.00  0.00    -0.493 OA
ATOM     20  C   UNL     1      17.997  38.108  19.873  1.00  0.00     0.278 C 
ENDBRANCH  10  19
BRANCH  11  21
ATOM     21  O   UNL     1      19.794  37.121  16.487  1.00  0.00    -0.493 OA
ATOM     22  C   UNL     1      21.030  36.414  16.456  1.00  0.00     0.278 C 
ENDBRANCH  11  21
ENDBRANCH   8   9
ENDBRANCH   1   8
BRANCH   5  23
ATOM     23  N   UNL     1      21.120  31.903  11.939  1.00  0.00    -0.306 N 
ATOM     24  C   UNL     1      22.420  32.359  12.338  1.00  0.00     0.324 C 
ATOM     25  H   UNL     1      21.068  31.062  11.321  1.00  0.00     0.171 HD
ATOM     26  O   UNL     1      22.562  33.506  12.843  1.00  0.00    -0.248 OA
ATOM     27  N   UNL     1      23.559  31.511  12.131  1.00  0.00    -0.289 N 
ATOM     28  H   UNL     1      23.394  30.538  11.787  1.00  0.00     0.173 HD
BRANCH  27  29
ATOM     29  C   UNL     1      24.915  31.929  12.343  1.00  0.00     0.177 A 
ATOM     30  N   UNL     1      25.380  32.484  13.479  1.00  0.00    -0.062 NA
ATOM     31  C   UNL     1      25.920  31.848  11.403  1.00  0.00     0.095 A 
ATOM     32  O   UNL     1      26.639  32.747  13.272  1.00  0.00    -0.360 OA
ATOM     33  C   UNL     1      27.005  32.390  12.063  1.00  0.00     0.135 A 
ATOM     34  C   UNL     1      28.379  32.567  11.512  1.00  0.00     0.091 C 
ENDBRANCH  27  29
ENDBRANCH   5  23
TORSDOF 6
ENDMDL
MODEL 3
REMARK VINA RESULT:    -8.831      2.084      3.660
REMARK INTER + INTRA:         -12.944
REMARK INTER:                 -11.898
REMARK INTRA:                  -1.046
REMARK UNBOUND:                -1.015
REMARK SMILES COc1cc2nccc(Oc3ccc(NC(=O)Nc4cc(C)on4)c(Cl)c3)c2cc1OC
REMARK SMILES IDX 11 1 27 2 25 3 26 4 14 5 13 6 12 7 10 8 9 9 3 10 30 11 4 12
REMARK SMILES IDX 29 13 5 14 28 15 6 16 7 17 8 18 2 19 1 20 31 21 32 22 15 23
REMARK SMILES IDX 16 24 17 26 18 27 19 29 24 30 20 31 23 32 21 33 22 34
REMARK H PARENT 15 25 18 28
REMARK Flexibility Score: inf
ROOT
ATOM      1  C   UNL     1      19.354  33.740  14.938  1.00  0.00     0.129 A 
ATOM      2  C   UNL     1      17.982  33.764  14.671  1.00  0.00     0.069 A 
ATOM      3  C   UNL     1      17.509  33.836  13.356  1.00  0.00     0.068 A 
ATOM      4  Cl  UNL     1      15.771  33.870  13.086  1.00  0.00    -0.082 Cl
ATOM      5  C   UNL     1      18.419  33.908  12.283  1.00  0.00     0.061 A 
ATOM      6  C   UNL     1      19.799  33.890  12.553  1.00  0.00     0.031 A 
ATOM      7  C   UNL     1      20.263  33.817  13.867  1.00  0.00     0.049 A 
ENDROOT
BRANCH   1   8
ATOM      8  O   UNL     1      19.775  33.646  16.273  1.00  0.00    -0.457 OA
BRANCH   8   9
ATOM      9  C   UNL     1      20.366  34.693  16.996  1.00  0.00     0.138 A 
ATOM     10  C   UNL     1      18.163  37.451  19.337  1.00  0.00     0.162 A 
ATOM     11  C   UNL     1      17.478  36.481  18.589  1.00  0.00     0.161 A 
ATOM     12  C   UNL     1      19.568  37.513  19.277  1.00  0.00     0.079 A 
ATOM     13  C   UNL     1      18.200  35.576  17.787  1.00  0.00     0.064 A 
ATOM     14  C   UNL     1      20.285  36.606  18.492  1.00  0.00     0.078 A 
ATOM     15  C   UNL     1      19.604  35.611  17.756  1.00  0.00     0.047 A 
ATOM     16  N   UNL     1      21.641  36.690  18.435  1.00  0.00    -0.256 NA
ATOM     17  C   UNL     1      22.380  35.838  17.680  1.00  0.00     0.115 A 
ATOM     18  C   UNL     1      21.756  34.831  16.944  1.00  0.00     0.068 A 
BRANCH  10  19
ATOM     19  O   UNL     1      17.412  38.336  20.128  1.00  0.00    -0.493 OA
ATOM     20  C   UNL     1      17.964  39.396  20.900  1.00  0.00     0.278 C 
ENDBRANCH  10  19
BRANCH  11  21
ATOM     21  O   UNL     1      16.077  36.448  18.672  1.00  0.00    -0.493 OA
ATOM     22  C   UNL     1      15.237  35.661  17.832  1.00  0.00     0.278 C 
ENDBRANCH  11  21
ENDBRANCH   8   9
ENDBRANCH   1   8
BRANCH   5  23
ATOM     23  N   UNL     1      17.941  33.943  10.926  1.00  0.00    -0.306 N 
ATOM     24  C   UNL     1      17.630  32.769  10.162  1.00  0.00     0.324 C 
ATOM     25  H   UNL     1      17.870  34.868  10.446  1.00  0.00     0.171 HD
ATOM     26  O   UNL     1      17.957  31.629  10.590  1.00  0.00    -0.248 OA
ATOM     27  N   UNL     1      16.971  32.907   8.894  1.00  0.00    -0.289 N 
ATOM     28  H   UNL     1      16.643  33.858   8.609  1.00  0.00     0.173 HD
BRANCH  27  29
ATOM     29  C   UNL     1      16.760  31.821   7.981  1.00  0.00     0.177 A 
ATOM     30  N   UNL     1      17.701  31.312   7.161  1.00  0.00    -0.062 NA
ATOM     31  C   UNL     1      15.560  31.170   7.795  1.00  0.00     0.095 A 
ATOM     32  O   UNL     1      17.121  30.368   6.477  1.00  0.00    -0.360 OA
ATOM     33  C   UNL     1      15.858  30.246   6.814  1.00  0.00     0.135 A 
ATOM     34  C   UNL     1      14.915  29.262   6.207  1.00  0.00     0.091 C 
ENDBRANCH  27  29
ENDBRANCH   5  23
TORSDOF 6
ENDMDL
MODEL 4
REMARK VINA RESULT:    -8.800      2.000      2.817
REMARK INTER + INTRA:         -12.902
REMARK INTER:                 -12.355
REMARK INTRA:                  -0.547
REMARK UNBOUND:                -1.015
REMARK SMILES COc1cc2nccc(Oc3ccc(NC(=O)Nc4cc(C)on4)c(Cl)c3)c2cc1OC
REMARK SMILES IDX 11 1 27 2 25 3 26 4 14 5 13 6 12 7 10 8 9 9 3 10 30 11 4 12
REMARK SMILES IDX 29 13 5 14 28 15 6 16 7 17 8 18 2 19 1 20 31 21 32 22 15 23
REMARK SMILES IDX 16 24 17 26 18 27 19 29 24 30 20 31 23 32 21 33 22 34
REMARK H PARENT 15 25 18 28
REMARK Flexibility Score: inf
ROOT
ATOM      1  C   UNL     1      18.166  33.898  14.900  1.00  0.00     0.129 A 
ATOM      2  C   UNL     1      16.936  33.718  14.261  1.00  0.00     0.069 A 
ATOM      3  C   UNL     1      16.854  33.685  12.864  1.00  0.00     0.068 A 
ATOM      4  Cl  UNL     1      15.276  33.461  12.119  1.00  0.00    -0.082 Cl
ATOM      5  C   UNL     1      18.014  33.857  12.084  1.00  0.00     0.061 A 
ATOM      6  C   UNL     1      19.250  34.044  12.729  1.00  0.00     0.031 A 
ATOM      7  C   UNL     1      19.325  34.075  14.122  1.00  0.00     0.049 A 
ENDROOT
BRANCH   1   8
ATOM      8  O   UNL     1      18.198  33.903  16.303  1.00  0.00    -0.457 OA
BRANCH   8   9
ATOM      9  C   UNL     1      17.412  34.734  17.113  1.00  0.00     0.138 A 
ATOM     10  C   UNL     1      19.025  37.604  19.779  1.00  0.00     0.162 A 
ATOM     11  C   UNL     1      19.892  36.765  19.062  1.00  0.00     0.161 A 
ATOM     12  C   UNL     1      17.633  37.461  19.626  1.00  0.00     0.079 A 
ATOM     13  C   UNL     1      19.365  35.791  18.193  1.00  0.00     0.064 A 
ATOM     14  C   UNL     1      17.110  36.503  18.753  1.00  0.00     0.078 A 
ATOM     15  C   UNL     1      17.978  35.672  18.008  1.00  0.00     0.047 A 
ATOM     16  N   UNL     1      15.763  36.370  18.628  1.00  0.00    -0.256 NA
ATOM     17  C   UNL     1      15.208  35.448  17.800  1.00  0.00     0.115 A 
ATOM     18  C   UNL     1      16.021  34.612  17.036  1.00  0.00     0.068 A 
BRANCH  10  19
ATOM     19  O   UNL     1      19.584  38.567  20.635  1.00  0.00    -0.493 OA
ATOM     20  C   UNL     1      19.066  38.908  21.915  1.00  0.00     0.278 C 
ENDBRANCH  10  19
BRANCH  11  21
ATOM     21  O   UNL     1      21.275  36.935  19.239  1.00  0.00    -0.493 OA
ATOM     22  C   UNL     1      22.245  36.781  18.209  1.00  0.00     0.278 C 
ENDBRANCH  11  21
ENDBRANCH   8   9
ENDBRANCH   1   8
BRANCH   5  23
ATOM     23  N   UNL     1      17.942  33.784  10.649  1.00  0.00    -0.306 N 
ATOM     24  C   UNL     1      17.948  32.552   9.913  1.00  0.00     0.324 C 
ATOM     25  H   UNL     1      17.946  34.676  10.105  1.00  0.00     0.171 HD
ATOM     26  O   UNL     1      18.219  31.467  10.495  1.00  0.00    -0.248 OA
ATOM     27  N   UNL     1      17.671  32.572   8.505  1.00  0.00    -0.289 N 
ATOM     28  H   UNL     1      17.371  33.475   8.073  1.00  0.00     0.173 HD
BRANCH  27  29
ATOM     29  C   UNL     1      17.808  31.429   7.648  1.00  0.00     0.177 A 
ATOM     30  N   UNL     1      18.802  31.252   6.756  1.00  0.00    -0.062 NA
ATOM     31  C   UNL     1      16.925  30.372   7.598  1.00  0.00     0.095 A 
ATOM     32  O   UNL     1      18.564  30.120   6.159  1.00  0.00    -0.360 OA
ATOM     33  C   UNL     1      17.468  29.562   6.621  1.00  0.00     0.135 A 
ATOM     34  C   UNL     1      16.914  28.265   6.136  1.00  0.00     0.091 C 
ENDBRANCH  27  29
ENDBRANCH   5  23
TORSDOF 6
ENDMDL
MODEL 5
REMARK VINA RESULT:    -8.729      5.556      7.956
REMARK INTER + INTRA:         -12.806
REMARK INTER:                 -11.828
REMARK INTRA:                  -0.978
REMARK UNBOUND:                -1.015
REMARK SMILES COc1cc2nccc(Oc3ccc(NC(=O)Nc4cc(C)on4)c(Cl)c3)c2cc1OC
REMARK SMILES IDX 11 1 27 2 25 3 26 4 14 5 13 6 12 7 10 8 9 9 3 10 30 11 4 12
REMARK SMILES IDX 29 13 5 14 28 15 6 16 7 17 8 18 2 19 1 20 31 21 32 22 15 23
REMARK SMILES IDX 16 24 17 26 18 27 19 29 24 30 20 31 23 32 21 33 22 34
REMARK H PARENT 15 25 18 28
REMARK Flexibility Score: inf
ROOT
ATOM      1  C   UNL     1      21.862  36.060  14.432  1.00  0.00     0.129 A 
ATOM      2  C   UNL     1      23.081  36.666  14.118  1.00  0.00     0.069 A 
ATOM      3  C   UNL     1      24.009  36.022  13.291  1.00  0.00     0.068 A 
ATOM      4  Cl  UNL     1      25.528  36.835  12.937  1.00  0.00    -0.082 Cl
ATOM      5  C   UNL     1      23.730  34.738  12.784  1.00  0.00     0.061 A 
ATOM      6  C   UNL     1      22.505  34.127  13.106  1.00  0.00     0.031 A 
ATOM      7  C   UNL     1      21.584  34.775  13.930  1.00  0.00     0.049 A 
ENDROOT
BRANCH   1   8
ATOM      8  O   UNL     1      20.958  36.756  15.249  1.00  0.00    -0.457 OA
BRANCH   8   9
ATOM      9  C   UNL     1      20.354  36.228  16.399  1.00  0.00     0.138 A 
ATOM     10  C   UNL     1      16.510  34.450  16.414  1.00  0.00     0.162 A 
ATOM     11  C   UNL     1      17.001  35.019  15.228  1.00  0.00     0.161 A 
ATOM     12  C   UNL     1      17.286  34.504  17.586  1.00  0.00     0.079 A 
ATOM     13  C   UNL     1      18.267  35.634  15.219  1.00  0.00     0.064 A 
ATOM     14  C   UNL     1      18.548  35.103  17.574  1.00  0.00     0.078 A 
ATOM     15  C   UNL     1      19.061  35.655  16.379  1.00  0.00     0.047 A 
ATOM     16  N   UNL     1      19.278  35.158  18.720  1.00  0.00    -0.256 NA
ATOM     17  C   UNL     1      20.505  35.738  18.760  1.00  0.00     0.115 A 
ATOM     18  C   UNL     1      21.060  36.288  17.604  1.00  0.00     0.068 A 
BRANCH  10  19
ATOM     19  O   UNL     1      15.244  33.841  16.386  1.00  0.00    -0.493 OA
ATOM     20  C   UNL     1      14.008  34.546  16.369  1.00  0.00     0.278 C 
ENDBRANCH  10  19
BRANCH  11  21
ATOM     21  O   UNL     1      16.200  34.947  14.077  1.00  0.00    -0.493 OA
ATOM     22  C   UNL     1      16.327  33.953  13.066  1.00  0.00     0.278 C 
ENDBRANCH  11  21
ENDBRANCH   8   9
ENDBRANCH   1   8
BRANCH   5  23
ATOM     23  N   UNL     1      24.661  34.087  11.901  1.00  0.00    -0.306 N 
ATOM     24  C   UNL     1      25.667  33.165  12.345  1.00  0.00     0.324 C 
ATOM     25  H   UNL     1      24.647  34.341  10.888  1.00  0.00     0.171 HD
ATOM     26  O   UNL     1      25.909  33.035  13.575  1.00  0.00    -0.248 OA
ATOM     27  N   UNL     1      26.414  32.416  11.375  1.00  0.00    -0.289 N 
ATOM     28  H   UNL     1      26.131  32.489  10.371  1.00  0.00     0.173 HD
BRANCH  27  29
ATOM     29  C   UNL     1      27.544  31.593  11.698  1.00  0.00     0.177 A 
ATOM     30  N   UNL     1      27.479  30.426  12.368  1.00  0.00    -0.062 NA
ATOM     31  C   UNL     1      28.853  31.900  11.395  1.00  0.00     0.095 A 
ATOM     32  O   UNL     1      28.704  30.001  12.487  1.00  0.00    -0.360 OA
ATOM     33  C   UNL     1      29.551  30.835  11.929  1.00  0.00     0.135 A 
ATOM     34  C   UNL     1      31.030  30.643  11.904  1.00  0.00     0.091 C 
ENDBRANCH  27  29
ENDBRANCH   5  23
TORSDOF 6
ENDMDL
MODEL 6
REMARK VINA RESULT:    -8.711      5.820      8.288
REMARK INTER + INTRA:         -12.781
REMARK INTER:                 -11.994
REMARK INTRA:                  -0.787
REMARK UNBOUND:                -1.015
REMARK SMILES COc1cc2nccc(Oc3ccc(NC(=O)Nc4cc(C)on4)c(Cl)c3)c2cc1OC
REMARK SMILES IDX 11 1 27 2 25 3 26 4 14 5 13 6 12 7 10 8 9 9 3 10 30 11 4 12
REMARK SMILES IDX 29 13 5 14 28 15 6 16 7 17 8 18 2 19 1 20 31 21 32 22 15 23
REMARK SMILES IDX 16 24 17 26 18 27 19 29 24 30 20 31 23 32 21 33 22 34
REMARK H PARENT 15 25 18 28
REMARK Flexibility Score: inf
ROOT
ATOM      1  C   UNL     1      21.572  34.180  13.675  1.00  0.00     0.129 A 
ATOM      2  C   UNL     1      22.429  35.055  13.002  1.00  0.00     0.069 A 
ATOM      3  C   UNL     1      23.492  34.567  12.233  1.00  0.00     0.068 A 
ATOM      4  Cl  UNL     1      24.539  35.720  11.415  1.00  0.00    -0.082 Cl
ATOM      5  C   UNL     1      23.723  33.180  12.149  1.00  0.00     0.061 A 
ATOM      6  C   UNL     1      22.864  32.301  12.832  1.00  0.00     0.031 A 
ATOM      7  C   UNL     1      21.805  32.795  13.596  1.00  0.00     0.049 A 
ENDROOT
BRANCH   1   8
ATOM      8  O   UNL     1      20.510  34.719  14.416  1.00  0.00    -0.457 OA
BRANCH   8   9
ATOM      9  C   UNL     1      19.153  34.535  14.112  1.00  0.00     0.138 A 
ATOM     10  C   UNL     1      16.055  34.818  16.987  1.00  0.00     0.162 A 
ATOM     11  C   UNL     1      17.391  34.945  17.398  1.00  0.00     0.161 A 
ATOM     12  C   UNL     1      15.764  34.568  15.632  1.00  0.00     0.079 A 
ATOM     13  C   UNL     1      18.429  34.827  16.455  1.00  0.00     0.064 A 
ATOM     14  C   UNL     1      16.794  34.465  14.693  1.00  0.00     0.078 A 
ATOM     15  C   UNL     1      18.140  34.617  15.096  1.00  0.00     0.047 A 
ATOM     16  N   UNL     1      16.496  34.210  13.392  1.00  0.00    -0.256 NA
ATOM     17  C   UNL     1      17.462  34.092  12.445  1.00  0.00     0.115 A 
ATOM     18  C   UNL     1      18.804  34.244  12.790  1.00  0.00     0.068 A 
BRANCH  10  19
ATOM     19  O   UNL     1      15.044  34.945  17.953  1.00  0.00    -0.493 OA
ATOM     20  C   UNL     1      14.283  36.126  18.176  1.00  0.00     0.278 C 
ENDBRANCH  10  19
BRANCH  11  21
ATOM     21  O   UNL     1      17.645  35.193  18.757  1.00  0.00    -0.493 OA
ATOM     22  C   UNL     1      18.944  35.291  19.331  1.00  0.00     0.278 C 
ENDBRANCH  11  21
ENDBRANCH   8   9
ENDBRANCH   1   8
BRANCH   5  23
ATOM     23  N   UNL     1      24.789  32.669  11.329  1.00  0.00    -0.306 N 
ATOM     24  C   UNL     1      25.956  32.021  11.854  1.00  0.00     0.324 C 
ATOM     25  H   UNL     1      24.744  32.828  10.298  1.00  0.00     0.171 HD
ATOM     26  O   UNL     1      26.194  32.048  13.092  1.00  0.00    -0.248 OA
ATOM     27  N   UNL     1      26.864  31.368  10.954  1.00  0.00    -0.289 N 
ATOM     28  H   UNL     1      26.595  31.295   9.947  1.00  0.00     0.173 HD
BRANCH  27  29
ATOM     29  C   UNL     1      28.135  30.833  11.351  1.00  0.00     0.177 A 
ATOM     30  N   UNL     1      28.303  29.741  12.123  1.00  0.00    -0.062 NA
ATOM     31  C   UNL     1      29.357  31.379  11.023  1.00  0.00     0.095 A 
ATOM     32  O   UNL     1      29.587  29.595  12.280  1.00  0.00    -0.360 OA
ATOM     33  C   UNL     1      30.251  30.536  11.650  1.00  0.00     0.135 A 
ATOM     34  C   UNL     1      31.738  30.657  11.644  1.00  0.00     0.091 C 
ENDBRANCH  27  29
ENDBRANCH   5  23
TORSDOF 6
ENDMDL
MODEL 7
REMARK VINA RESULT:    -8.617      5.664      8.348
REMARK INTER + INTRA:         -12.654
REMARK INTER:                 -11.597
REMARK INTRA:                  -1.058
REMARK UNBOUND:                -1.015
REMARK SMILES COc1cc2nccc(Oc3ccc(NC(=O)Nc4cc(C)on4)c(Cl)c3)c2cc1OC
REMARK SMILES IDX 11 1 27 2 25 3 26 4 14 5 13 6 12 7 10 8 9 9 3 10 30 11 4 12
REMARK SMILES IDX 29 13 5 14 28 15 6 16 7 17 8 18 2 19 1 20 31 21 32 22 15 23
REMARK SMILES IDX 16 24 17 26 18 27 19 29 24 30 20 31 23 32 21 33 22 34
REMARK H PARENT 15 25 18 28
REMARK Flexibility Score: inf
ROOT
ATOM      1  C   UNL     1      21.154  32.579  14.152  1.00  0.00     0.129 A 
ATOM      2  C   UNL     1      22.056  32.745  15.207  1.00  0.00     0.069 A 
ATOM      3  C   UNL     1      23.372  33.158  14.965  1.00  0.00     0.068 A 
ATOM      4  Cl  UNL     1      24.461  33.343  16.333  1.00  0.00    -0.082 Cl
ATOM      5  C   UNL     1      23.807  33.388  13.645  1.00  0.00     0.061 A 
ATOM      6  C   UNL     1      22.900  33.214  12.585  1.00  0.00     0.031 A 
ATOM      7  C   UNL     1      21.589  32.804  12.834  1.00  0.00     0.049 A 
ENDROOT
BRANCH   1   8
ATOM      8  O   UNL     1      19.841  32.183  14.450  1.00  0.00    -0.457 OA
BRANCH   8   9
ATOM      9  C   UNL     1      18.701  32.963  14.208  1.00  0.00     0.138 A 
ATOM     10  C   UNL     1      16.804  35.314  17.178  1.00  0.00     0.162 A 
ATOM     11  C   UNL     1      17.897  34.507  17.531  1.00  0.00     0.161 A 
ATOM     12  C   UNL     1      16.334  35.308  15.851  1.00  0.00     0.079 A 
ATOM     13  C   UNL     1      18.518  33.703  16.557  1.00  0.00     0.064 A 
ATOM     14  C   UNL     1      16.959  34.520  14.881  1.00  0.00     0.078 A 
ATOM     15  C   UNL     1      18.077  33.725  15.224  1.00  0.00     0.047 A 
ATOM     16  N   UNL     1      16.484  34.516  13.607  1.00  0.00    -0.256 NA
ATOM     17  C   UNL     1      17.052  33.760  12.633  1.00  0.00     0.115 A 
ATOM     18  C   UNL     1      18.163  32.967  12.918  1.00  0.00     0.068 A 
BRANCH  10  19
ATOM     19  O   UNL     1      16.210  36.106  18.174  1.00  0.00    -0.493 OA
ATOM     20  C   UNL     1      14.827  36.078  18.511  1.00  0.00     0.278 C 
ENDBRANCH  10  19
BRANCH  11  21
ATOM     21  O   UNL     1      18.339  34.537  18.864  1.00  0.00    -0.493 OA
ATOM     22  C   UNL     1      19.430  35.322  19.335  1.00  0.00     0.278 C 
ENDBRANCH  11  21
ENDBRANCH   8   9
ENDBRANCH   1   8
BRANCH   5  23
ATOM     23  N   UNL     1      25.146  33.850  13.392  1.00  0.00    -0.306 N 
ATOM     24  C   UNL     1      26.245  32.979  13.090  1.00  0.00     0.324 C 
ATOM     25  H   UNL     1      25.348  34.871  13.491  1.00  0.00     0.171 HD
ATOM     26  O   UNL     1      26.123  31.732  13.229  1.00  0.00    -0.248 OA
ATOM     27  N   UNL     1      27.492  33.542  12.655  1.00  0.00    -0.289 N 
ATOM     28  H   UNL     1      27.532  34.571  12.473  1.00  0.00     0.173 HD
BRANCH  27  29
ATOM     29  C   UNL     1      28.696  32.781  12.483  1.00  0.00     0.177 A 
ATOM     30  N   UNL     1      29.661  32.647  13.414  1.00  0.00    -0.062 NA
ATOM     31  C   UNL     1      29.044  32.108  11.332  1.00  0.00     0.095 A 
ATOM     32  O   UNL     1      30.592  31.913  12.875  1.00  0.00    -0.360 OA
ATOM     33  C   UNL     1      30.274  31.569  11.648  1.00  0.00     0.135 A 
ATOM     34  C   UNL     1      31.134  30.738  10.757  1.00  0.00     0.091 C 
ENDBRANCH  27  29
ENDBRANCH   5  23
TORSDOF 6
ENDMDL
MODEL 8
REMARK VINA RESULT:    -8.488      5.573      9.549
REMARK INTER + INTRA:         -12.480
REMARK INTER:                 -11.800
REMARK INTRA:                  -0.680
REMARK UNBOUND:                -1.015
REMARK SMILES COc1cc2nccc(Oc3ccc(NC(=O)Nc4cc(C)on4)c(Cl)c3)c2cc1OC
REMARK SMILES IDX 11 1 27 2 25 3 26 4 14 5 13 6 12 7 10 8 9 9 3 10 30 11 4 12
REMARK SMILES IDX 29 13 5 14 28 15 6 16 7 17 8 18 2 19 1 20 31 21 32 22 15 23
REMARK SMILES IDX 16 24 17 26 18 27 19 29 24 30 20 31 23 32 21 33 22 34
REMARK H PARENT 15 25 18 28
REMARK Flexibility Score: inf
ROOT
ATOM      1  C   UNL     1      20.506  32.219  13.525  1.00  0.00     0.129 A 
ATOM      2  C   UNL     1      21.202  32.404  14.723  1.00  0.00     0.069 A 
ATOM      3  C   UNL     1      22.576  32.671  14.718  1.00  0.00     0.068 A 
ATOM      4  Cl  UNL     1      23.396  32.889  16.259  1.00  0.00    -0.082 Cl
ATOM      5  C   UNL     1      23.278  32.733  13.499  1.00  0.00     0.061 A 
ATOM      6  C   UNL     1      22.577  32.540  12.295  1.00  0.00     0.031 A 
ATOM      7  C   UNL     1      21.207  32.275  12.307  1.00  0.00     0.049 A 
ENDROOT
BRANCH   1   8
ATOM      8  O   UNL     1      19.125  31.973  13.583  1.00  0.00    -0.457 OA
BRANCH   8   9
ATOM      9  C   UNL     1      18.135  32.934  13.334  1.00  0.00     0.138 A 
ATOM     10  C   UNL     1      16.738  33.900   9.454  1.00  0.00     0.162 A 
ATOM     11  C   UNL     1      17.786  32.977   9.599  1.00  0.00     0.161 A 
ATOM     12  C   UNL     1      16.187  34.514  10.594  1.00  0.00     0.079 A 
ATOM     13  C   UNL     1      18.274  32.668  10.883  1.00  0.00     0.064 A 
ATOM     14  C   UNL     1      16.663  34.197  11.870  1.00  0.00     0.078 A 
ATOM     15  C   UNL     1      17.700  33.250  12.026  1.00  0.00     0.047 A 
ATOM     16  N   UNL     1      16.128  34.810  12.959  1.00  0.00    -0.256 NA
ATOM     17  C   UNL     1      16.563  34.543  14.217  1.00  0.00     0.115 A 
ATOM     18  C   UNL     1      17.576  33.608  14.425  1.00  0.00     0.068 A 
BRANCH  10  19
ATOM     19  O   UNL     1      16.273  34.182   8.159  1.00  0.00    -0.493 OA
ATOM     20  C   UNL     1      15.131  33.579   7.561  1.00  0.00     0.278 C 
ENDBRANCH  10  19
BRANCH  11  21
ATOM     21  O   UNL     1      18.312  32.384   8.440  1.00  0.00    -0.493 OA
ATOM     22  C   UNL     1      17.834  31.173   7.865  1.00  0.00     0.278 C 
ENDBRANCH  11  21
ENDBRANCH   8   9
ENDBRANCH   1   8
BRANCH   5  23
ATOM     23  N   UNL     1      24.682  33.047  13.484  1.00  0.00    -0.306 N 
ATOM     24  C   UNL     1      25.696  32.138  13.032  1.00  0.00     0.324 C 
ATOM     25  H   UNL     1      24.992  33.963  13.878  1.00  0.00     0.171 HD
ATOM     26  O   UNL     1      25.411  30.930  12.808  1.00  0.00    -0.248 OA
ATOM     27  N   UNL     1      27.042  32.609  12.866  1.00  0.00    -0.289 N 
ATOM     28  H   UNL     1      27.224  33.632  12.981  1.00  0.00     0.173 HD
BRANCH  27  29
ATOM     29  C   UNL     1      28.157  31.755  12.576  1.00  0.00     0.177 A 
ATOM     30  N   UNL     1      28.640  30.812  13.409  1.00  0.00    -0.062 NA
ATOM     31  C   UNL     1      28.907  31.802  11.421  1.00  0.00     0.095 A 
ATOM     32  O   UNL     1      29.661  30.275  12.806  1.00  0.00    -0.360 OA
ATOM     33  C   UNL     1      29.858  30.825  11.629  1.00  0.00     0.135 A 
ATOM     34  C   UNL     1      30.955  30.442  10.694  1.00  0.00     0.091 C 
ENDBRANCH  27  29
ENDBRANCH   5  23
TORSDOF 6
ENDMDL
MODEL 9
REMARK VINA RESULT:    -8.359      3.506      4.723
REMARK INTER + INTRA:         -12.306
REMARK INTER:                 -11.391
REMARK INTRA:                  -0.915
REMARK UNBOUND:                -1.015
REMARK SMILES COc1cc2nccc(Oc3ccc(NC(=O)Nc4cc(C)on4)c(Cl)c3)c2cc1OC
REMARK SMILES IDX 11 1 27 2 25 3 26 4 14 5 13 6 12 7 10 8 9 9 3 10 30 11 4 12
REMARK SMILES IDX 29 13 5 14 28 15 6 16 7 17 8 18 2 19 1 20 31 21 32 22 15 23
REMARK SMILES IDX 16 24 17 26 18 27 19 29 24 30 20 31 23 32 21 33 22 34
REMARK H PARENT 15 25 18 28
REMARK Flexibility Score: inf
ROOT
ATOM      1  C   UNL     1      20.086  33.727  14.102  1.00  0.00     0.129 A 
ATOM      2  C   UNL     1      18.705  33.783  14.310  1.00  0.00     0.069 A 
ATOM      3  C   UNL     1      17.819  33.800  13.227  1.00  0.00     0.068 A 
ATOM      4  Cl  UNL     1      16.092  33.877  13.554  1.00  0.00    -0.082 Cl
ATOM      5  C   UNL     1      18.314  33.783  11.909  1.00  0.00     0.061 A 
ATOM      6  C   UNL     1      19.704  33.733  11.701  1.00  0.00     0.031 A 
ATOM      7  C   UNL     1      20.583  33.715  12.786  1.00  0.00     0.049 A 
ENDROOT
BRANCH   1   8
ATOM      8  O   UNL     1      20.932  33.693  15.222  1.00  0.00    -0.457 OA
BRANCH   8   9
ATOM      9  C   UNL     1      21.989  34.585  15.448  1.00  0.00     0.138 A 
ATOM     10  C   UNL     1      25.994  33.799  14.311  1.00  0.00     0.162 A 
ATOM     11  C   UNL     1      25.014  32.814  14.110  1.00  0.00     0.161 A 
ATOM     12  C   UNL     1      25.639  35.020  14.914  1.00  0.00     0.079 A 
ATOM     13  C   UNL     1      23.685  33.056  14.507  1.00  0.00     0.064 A 
ATOM     14  C   UNL     1      24.318  35.266  15.297  1.00  0.00     0.078 A 
ATOM     15  C   UNL     1      23.321  34.289  15.074  1.00  0.00     0.047 A 
ATOM     16  N   UNL     1      23.996  36.446  15.890  1.00  0.00    -0.256 NA
ATOM     17  C   UNL     1      22.729  36.726  16.287  1.00  0.00     0.115 A 
ATOM     18  C   UNL     1      21.708  35.800  16.080  1.00  0.00     0.068 A 
BRANCH  10  19
ATOM     19  O   UNL     1      27.308  33.526  13.900  1.00  0.00    -0.493 OA
ATOM     20  C   UNL     1      28.338  34.502  13.786  1.00  0.00     0.278 C 
ENDBRANCH  10  19
BRANCH  11  21
ATOM     21  O   UNL     1      25.402  31.607  13.506  1.00  0.00    -0.493 OA
ATOM     22  C   UNL     1      25.147  31.265  12.148  1.00  0.00     0.278 C 
ENDBRANCH  11  21
ENDBRANCH   8   9
ENDBRANCH   1   8
BRANCH   5  23
ATOM     23  N   UNL     1      17.408  33.759  10.792  1.00  0.00    -0.306 N 
ATOM     24  C   UNL     1      17.233  32.623   9.933  1.00  0.00     0.324 C 
ATOM     25  H   UNL     1      16.890  34.634  10.552  1.00  0.00     0.171 HD
ATOM     26  O   UNL     1      18.026  31.646  10.004  1.00  0.00    -0.248 OA
ATOM     27  N   UNL     1      16.165  32.623   8.973  1.00  0.00    -0.289 N 
ATOM     28  H   UNL     1      15.480  33.412   8.997  1.00  0.00     0.173 HD
BRANCH  27  29
ATOM     29  C   UNL     1      15.999  31.618   7.963  1.00  0.00     0.177 A 
ATOM     30  N   UNL     1      16.704  31.556   6.816  1.00  0.00    -0.062 NA
ATOM     31  C   UNL     1      15.075  30.597   8.013  1.00  0.00     0.095 A 
ATOM     32  O   UNL     1      16.247  30.529   6.158  1.00  0.00    -0.360 OA
ATOM     33  C   UNL     1      15.285  29.931   6.823  1.00  0.00     0.135 A 
ATOM     34  C   UNL     1      14.546  28.730   6.336  1.00  0.00     0.091 C 
ENDBRANCH  27  29
ENDBRANCH   5  23
TORSDOF 6
ENDMDL
MODEL 10
REMARK VINA RESULT:    -8.340      2.048      2.542
REMARK INTER + INTRA:         -12.281
REMARK INTER:                 -11.174
REMARK INTRA:                  -1.106
REMARK UNBOUND:                -1.015
REMARK SMILES COc1cc2nccc(Oc3ccc(NC(=O)Nc4cc(C)on4)c(Cl)c3)c2cc1OC
REMARK SMILES IDX 11 1 27 2 25 3 26 4 14 5 13 6 12 7 10 8 9 9 3 10 30 11 4 12
REMARK SMILES IDX 29 13 5 14 28 15 6 16 7 17 8 18 2 19 1 20 31 21 32 22 15 23
REMARK SMILES IDX 16 24 17 26 18 27 19 29 24 30 20 31 23 32 21 33 22 34
REMARK H PARENT 15 25 18 28
REMARK Flexibility Score: inf
ROOT
ATOM      1  C   UNL     1      18.344  33.974  15.118  1.00  0.00     0.129 A 
ATOM      2  C   UNL     1      16.969  33.886  14.881  1.00  0.00     0.069 A 
ATOM      3  C   UNL     1      16.465  33.913  13.576  1.00  0.00     0.068 A 
ATOM      4  Cl  UNL     1      14.725  33.803  13.343  1.00  0.00    -0.082 Cl
ATOM      5  C   UNL     1      17.342  34.054  12.483  1.00  0.00     0.061 A 
ATOM      6  C   UNL     1      18.725  34.150  12.724  1.00  0.00     0.031 A 
ATOM      7  C   UNL     1      19.221  34.121  14.028  1.00  0.00     0.049 A 
ENDROOT
BRANCH   1   8
ATOM      8  O   UNL     1      18.800  33.922  16.444  1.00  0.00    -0.457 OA
BRANCH   8   9
ATOM      9  C   UNL     1      19.522  34.943  17.079  1.00  0.00     0.138 A 
ATOM     10  C   UNL     1      23.752  35.052  17.259  1.00  0.00     0.162 A 
ATOM     11  C   UNL     1      23.116  33.950  16.666  1.00  0.00     0.161 A 
ATOM     12  C   UNL     1      22.978  36.089  17.811  1.00  0.00     0.079 A 
ATOM     13  C   UNL     1      21.710  33.893  16.624  1.00  0.00     0.064 A 
ATOM     14  C   UNL     1      21.582  36.039  17.757  1.00  0.00     0.078 A 
ATOM     15  C   UNL     1      20.935  34.945  17.139  1.00  0.00     0.047 A 
ATOM     16  N   UNL     1      20.850  37.043  18.308  1.00  0.00    -0.256 NA
ATOM     17  C   UNL     1      19.493  37.034  18.289  1.00  0.00     0.115 A 
ATOM     18  C   UNL     1      18.807  35.983  17.681  1.00  0.00     0.068 A 
BRANCH  10  19
ATOM     19  O   UNL     1      25.156  35.079  17.281  1.00  0.00    -0.493 OA
ATOM     20  C   UNL     1      25.961  35.913  16.455  1.00  0.00     0.278 C 
ENDBRANCH  10  19
BRANCH  11  21
ATOM     21  O   UNL     1      23.919  32.933  16.125  1.00  0.00    -0.493 OA
ATOM     22  C   UNL     1      24.220  32.792  14.741  1.00  0.00     0.278 C 
ENDBRANCH  11  21
ENDBRANCH   8   9
ENDBRANCH   1   8
BRANCH   5  23
ATOM     23  N   UNL     1      16.835  34.043  11.137  1.00  0.00    -0.306 N 
ATOM     24  C   UNL     1      16.812  32.875  10.304  1.00  0.00     0.324 C 
ATOM     25  H   UNL     1      16.517  34.945  10.717  1.00  0.00     0.171 HD
ATOM     26  O   UNL     1      17.430  31.834  10.656  1.00  0.00    -0.248 OA
ATOM     27  N   UNL     1      16.106  32.913   9.056  1.00  0.00    -0.289 N 
ATOM     28  H   UNL     1      15.539  33.763   8.835  1.00  0.00     0.173 HD
BRANCH  27  29
ATOM     29  C   UNL     1      16.154  31.863   8.078  1.00  0.00     0.177 A 
ATOM     30  N   UNL     1      17.158  31.676   7.199  1.00  0.00    -0.062 NA
ATOM     31  C   UNL     1      15.166  30.922   7.885  1.00  0.00     0.095 A 
ATOM     32  O   UNL     1      16.823  30.650   6.471  1.00  0.00    -0.360 OA
ATOM     33  C   UNL     1      15.657  30.170   6.837  1.00  0.00     0.135 A 
ATOM     34  C   UNL     1      14.987  29.003   6.193  1.00  0.00     0.091 C 
ENDBRANCH  27  29
ENDBRANCH   5  23
TORSDOF 6
ENDMDL
MODEL 11
REMARK VINA RESULT:    -8.320      5.273      8.095
REMARK INTER + INTRA:         -12.254
REMARK INTER:                 -11.631
REMARK INTRA:                  -0.623
REMARK UNBOUND:                -1.015
REMARK SMILES COc1cc2nccc(Oc3ccc(NC(=O)Nc4cc(C)on4)c(Cl)c3)c2cc1OC
REMARK SMILES IDX 11 1 27 2 25 3 26 4 14 5 13 6 12 7 10 8 9 9 3 10 30 11 4 12
REMARK SMILES IDX 29 13 5 14 28 15 6 16 7 17 8 18 2 19 1 20 31 21 32 22 15 23
REMARK SMILES IDX 16 24 17 26 18 27 19 29 24 30 20 31 23 32 21 33 22 34
REMARK H PARENT 15 25 18 28
REMARK Flexibility Score: inf
ROOT
ATOM      1  C   UNL     1      21.332  34.449  15.338  1.00  0.00     0.129 A 
ATOM      2  C   UNL     1      21.917  35.021  14.205  1.00  0.00     0.069 A 
ATOM      3  C   UNL     1      22.732  34.261  13.358  1.00  0.00     0.068 A 
ATOM      4  Cl  UNL     1      23.445  35.041  11.952  1.00  0.00    -0.082 Cl
ATOM      5  C   UNL     1      22.991  32.909  13.655  1.00  0.00     0.061 A 
ATOM      6  C   UNL     1      22.406  32.336  14.799  1.00  0.00     0.031 A 
ATOM      7  C   UNL     1      21.594  33.099  15.638  1.00  0.00     0.049 A 
ENDROOT
BRANCH   1   8
ATOM      8  O   UNL     1      20.507  35.249  16.143  1.00  0.00    -0.457 OA
BRANCH   8   9
ATOM      9  C   UNL     1      19.158  34.980  16.414  1.00  0.00     0.138 A 
ATOM     10  C   UNL     1      16.328  33.977  13.425  1.00  0.00     0.162 A 
ATOM     11  C   UNL     1      17.641  34.302  13.050  1.00  0.00     0.161 A 
ATOM     12  C   UNL     1      15.962  34.018  14.784  1.00  0.00     0.079 A 
ATOM     13  C   UNL     1      18.582  34.661  14.033  1.00  0.00     0.064 A 
ATOM     14  C   UNL     1      16.900  34.361  15.761  1.00  0.00     0.078 A 
ATOM     15  C   UNL     1      18.230  34.665  15.394  1.00  0.00     0.047 A 
ATOM     16  N   UNL     1      16.524  34.409  17.067  1.00  0.00    -0.256 NA
ATOM     17  C   UNL     1      17.397  34.746  18.051  1.00  0.00     0.115 A 
ATOM     18  C   UNL     1      18.723  35.044  17.741  1.00  0.00     0.068 A 
BRANCH  10  19
ATOM     19  O   UNL     1      15.416  33.619  12.419  1.00  0.00    -0.493 OA
ATOM     20  C   UNL     1      15.221  32.294  11.939  1.00  0.00     0.278 C 
ENDBRANCH  10  19
BRANCH  11  21
ATOM     21  O   UNL     1      17.972  34.251  11.686  1.00  0.00    -0.493 OA
ATOM     22  C   UNL     1      18.706  33.197  11.072  1.00  0.00     0.278 C 
ENDBRANCH  11  21
ENDBRANCH   8   9
ENDBRANCH   1   8
BRANCH   5  23
ATOM     23  N   UNL     1      23.795  32.111  12.769  1.00  0.00    -0.306 N 
ATOM     24  C   UNL     1      25.227  32.044  12.836  1.00  0.00     0.324 C 
ATOM     25  H   UNL     1      23.320  31.596  11.994  1.00  0.00     0.171 HD
ATOM     26  O   UNL     1      25.866  32.851  13.563  1.00  0.00    -0.248 OA
ATOM     27  N   UNL     1      25.924  31.070  12.045  1.00  0.00    -0.289 N 
ATOM     28  H   UNL     1      25.360  30.366  11.517  1.00  0.00     0.173 HD
BRANCH  27  29
ATOM     29  C   UNL     1      27.352  31.023  11.913  1.00  0.00     0.177 A 
ATOM     30  N   UNL     1      28.143  30.071  12.448  1.00  0.00    -0.062 NA
ATOM     31  C   UNL     1      28.114  31.961  11.250  1.00  0.00     0.095 A 
ATOM     32  O   UNL     1      29.366  30.389  12.134  1.00  0.00    -0.360 OA
ATOM     33  C   UNL     1      29.401  31.496  11.427  1.00  0.00     0.135 A 
ATOM     34  C   UNL     1      30.651  32.133  10.922  1.00  0.00     0.091 C 
ENDBRANCH  27  29
ENDBRANCH   5  23
TORSDOF 6
ENDMDL
MODEL 12
REMARK VINA RESULT:    -8.233      5.784      8.421
REMARK INTER + INTRA:         -12.136
REMARK INTER:                 -11.029
REMARK INTRA:                  -1.107
REMARK UNBOUND:                -1.015
REMARK SMILES COc1cc2nccc(Oc3ccc(NC(=O)Nc4cc(C)on4)c(Cl)c3)c2cc1OC
REMARK SMILES IDX 11 1 27 2 25 3 26 4 14 5 13 6 12 7 10 8 9 9 3 10 30 11 4 12
REMARK SMILES IDX 29 13 5 14 28 15 6 16 7 17 8 18 2 19 1 20 31 21 32 22 15 23
REMARK SMILES IDX 16 24 17 26 18 27 19 29 24 30 20 31 23 32 21 33 22 34
REMARK H PARENT 15 25 18 28
REMARK Flexibility Score: inf
ROOT
ATOM      1  C   UNL     1      22.044  35.275  14.587  1.00  0.00     0.129 A 
ATOM      2  C   UNL     1      23.179  35.961  14.145  1.00  0.00     0.069 A 
ATOM      3  C   UNL     1      24.445  35.367  14.212  1.00  0.00     0.068 A 
ATOM      4  Cl  UNL     1      25.836  36.284  13.646  1.00  0.00    -0.082 Cl
ATOM      5  C   UNL     1      24.590  34.073  14.749  1.00  0.00     0.061 A 
ATOM      6  C   UNL     1      23.448  33.388  15.199  1.00  0.00     0.031 A 
ATOM      7  C   UNL     1      22.188  33.985  15.129  1.00  0.00     0.049 A 
ENDROOT
BRANCH   1   8
ATOM      8  O   UNL     1      20.795  35.907  14.481  1.00  0.00    -0.457 OA
BRANCH   8   9
ATOM      9  C   UNL     1      19.882  36.048  15.535  1.00  0.00     0.138 A 
ATOM     10  C   UNL     1      15.991  34.376  15.496  1.00  0.00     0.162 A 
ATOM     11  C   UNL     1      16.808  34.245  14.363  1.00  0.00     0.161 A 
ATOM     12  C   UNL     1      16.462  35.085  16.616  1.00  0.00     0.079 A 
ATOM     13  C   UNL     1      18.094  34.819  14.356  1.00  0.00     0.064 A 
ATOM     14  C   UNL     1      17.743  35.644  16.615  1.00  0.00     0.078 A 
ATOM     15  C   UNL     1      18.582  35.494  15.488  1.00  0.00     0.047 A 
ATOM     16  N   UNL     1      18.176  36.337  17.701  1.00  0.00    -0.256 NA
ATOM     17  C   UNL     1      19.408  36.905  17.744  1.00  0.00     0.115 A 
ATOM     18  C   UNL     1      20.278  36.777  16.661  1.00  0.00     0.068 A 
BRANCH  10  19
ATOM     19  O   UNL     1      14.715  33.788  15.470  1.00  0.00    -0.493 OA
ATOM     20  C   UNL     1      13.508  34.489  15.193  1.00  0.00     0.278 C 
ENDBRANCH  10  19
BRANCH  11  21
ATOM     21  O   UNL     1      16.307  33.531  13.262  1.00  0.00    -0.493 OA
ATOM     22  C   UNL     1      16.082  34.090  11.972  1.00  0.00     0.278 C 
ENDBRANCH  11  21
ENDBRANCH   8   9
ENDBRANCH   1   8
BRANCH   5  23
ATOM     23  N   UNL     1      25.882  33.441  14.784  1.00  0.00    -0.306 N 
ATOM     24  C   UNL     1      26.441  32.712  13.682  1.00  0.00     0.324 C 
ATOM     25  H   UNL     1      26.422  33.461  15.678  1.00  0.00     0.171 HD
ATOM     26  O   UNL     1      25.726  32.423  12.685  1.00  0.00    -0.248 OA
ATOM     27  N   UNL     1      27.812  32.292  13.739  1.00  0.00    -0.289 N 
ATOM     28  H   UNL     1      28.396  32.619  14.541  1.00  0.00     0.173 HD
BRANCH  27  29
ATOM     29  C   UNL     1      28.423  31.425  12.771  1.00  0.00     0.177 A 
ATOM     30  N   UNL     1      28.093  30.132  12.581  1.00  0.00    -0.062 NA
ATOM     31  C   UNL     1      29.450  31.787  11.927  1.00  0.00     0.095 A 
ATOM     32  O   UNL     1      28.881  29.685  11.646  1.00  0.00    -0.360 OA
ATOM     33  C   UNL     1      29.699  30.623  11.228  1.00  0.00     0.135 A 
ATOM     34  C   UNL     1      30.734  30.428  10.171  1.00  0.00     0.091 C 
ENDBRANCH  27  29
ENDBRANCH   5  23
TORSDOF 6
ENDMDL
MODEL 13
REMARK VINA RESULT:    -8.214      2.521     10.891
REMARK INTER + INTRA:         -12.110
REMARK INTER:                 -11.703
REMARK INTRA:                  -0.408
REMARK UNBOUND:                -1.015
REMARK SMILES COc1cc2nccc(Oc3ccc(NC(=O)Nc4cc(C)on4)c(Cl)c3)c2cc1OC
REMARK SMILES IDX 11 1 27 2 25 3 26 4 14 5 13 6 12 7 10 8 9 9 3 10 30 11 4 12
REMARK SMILES IDX 29 13 5 14 28 15 6 16 7 17 8 18 2 19 1 20 31 21 32 22 15 23
REMARK SMILES IDX 16 24 17 26 18 27 19 29 24 30 20 31 23 32 21 33 22 34
REMARK H PARENT 15 25 18 28
REMARK Flexibility Score: inf
ROOT
ATOM      1  C   UNL     1      18.798  33.630  12.236  1.00  0.00     0.129 A 
ATOM      2  C   UNL     1      17.592  33.722  12.938  1.00  0.00     0.069 A 
ATOM      3  C   UNL     1      17.582  33.838  14.332  1.00  0.00     0.068 A 
ATOM      4  Cl  UNL     1      16.033  33.944  15.158  1.00  0.00    -0.082 Cl
ATOM      5  C   UNL     1      18.795  33.838  15.049  1.00  0.00     0.061 A 
ATOM      6  C   UNL     1      20.007  33.738  14.342  1.00  0.00     0.031 A 
ATOM      7  C   UNL     1      20.009  33.625  12.951  1.00  0.00     0.049 A 
ENDROOT
BRANCH   1   8
ATOM      8  O   UNL     1      18.753  33.536  10.837  1.00  0.00    -0.457 OA
BRANCH   8   9
ATOM      9  C   UNL     1      17.632  33.843  10.054  1.00  0.00     0.138 A 
ATOM     10  C   UNL     1      16.151  31.314   6.996  1.00  0.00     0.162 A 
ATOM     11  C   UNL     1      17.325  30.957   7.678  1.00  0.00     0.161 A 
ATOM     12  C   UNL     1      15.500  32.520   7.316  1.00  0.00     0.079 A 
ATOM     13  C   UNL     1      17.839  31.803   8.678  1.00  0.00     0.064 A 
ATOM     14  C   UNL     1      16.002  33.354   8.318  1.00  0.00     0.078 A 
ATOM     15  C   UNL     1      17.169  32.988   9.027  1.00  0.00     0.047 A 
ATOM     16  N   UNL     1      15.367  34.521   8.604  1.00  0.00    -0.256 NA
ATOM     17  C   UNL     1      15.822  35.368   9.563  1.00  0.00     0.115 A 
ATOM     18  C   UNL     1      16.964  35.047  10.297  1.00  0.00     0.068 A 
BRANCH  10  19
ATOM     19  O   UNL     1      15.664  30.445   6.006  1.00  0.00    -0.493 OA
ATOM     20  C   UNL     1      14.791  29.348   6.252  1.00  0.00     0.278 C 
ENDBRANCH  10  19
BRANCH  11  21
ATOM     21  O   UNL     1      17.950  29.747   7.333  1.00  0.00    -0.493 OA
ATOM     22  C   UNL     1      18.770  29.561   6.184  1.00  0.00     0.278 C 
ENDBRANCH  11  21
ENDBRANCH   8   9
ENDBRANCH   1   8
BRANCH   5  23
ATOM     23  N   UNL     1      18.795  33.996  16.479  1.00  0.00    -0.306 N 
ATOM     24  C   UNL     1      18.755  35.269  17.139  1.00  0.00     0.324 C 
ATOM     25  H   UNL     1      18.888  33.143  17.074  1.00  0.00     0.171 HD
ATOM     26  O   UNL     1      18.920  36.331  16.479  1.00  0.00    -0.248 OA
ATOM     27  N   UNL     1      18.555  35.321  18.559  1.00  0.00    -0.289 N 
ATOM     28  H   UNL     1      18.341  34.429  19.060  1.00  0.00     0.173 HD
BRANCH  27  29
ATOM     29  C   UNL     1      18.658  36.522  19.337  1.00  0.00     0.177 A 
ATOM     30  N   UNL     1      19.737  36.878  20.062  1.00  0.00    -0.062 NA
ATOM     31  C   UNL     1      17.658  37.459  19.476  1.00  0.00     0.095 A 
ATOM     32  O   UNL     1      19.436  38.005  20.641  1.00  0.00    -0.360 OA
ATOM     33  C   UNL     1      18.221  38.389  20.326  1.00  0.00     0.135 A 
ATOM     34  C   UNL     1      17.573  39.633  20.834  1.00  0.00     0.091 C 
ENDBRANCH  27  29
ENDBRANCH   5  23
TORSDOF 6
ENDMDL
MODEL 14
REMARK VINA RESULT:    -8.157      5.927      9.201
REMARK INTER + INTRA:         -12.034
REMARK INTER:                 -11.109
REMARK INTRA:                  -0.925
REMARK UNBOUND:                -1.015
REMARK SMILES COc1cc2nccc(Oc3ccc(NC(=O)Nc4cc(C)on4)c(Cl)c3)c2cc1OC
REMARK SMILES IDX 11 1 27 2 25 3 26 4 14 5 13 6 12 7 10 8 9 9 3 10 30 11 4 12
REMARK SMILES IDX 29 13 5 14 28 15 6 16 7 17 8 18 2 19 1 20 31 21 32 22 15 23
REMARK SMILES IDX 16 24 17 26 18 27 19 29 24 30 20 31 23 32 21 33 22 34
REMARK H PARENT 15 25 18 28
REMARK Flexibility Score: inf
ROOT
ATOM      1  C   UNL     1      22.298  34.859  14.628  1.00  0.00     0.129 A 
ATOM      2  C   UNL     1      23.342  35.657  14.150  1.00  0.00     0.069 A 
ATOM      3  C   UNL     1      24.674  35.249  14.284  1.00  0.00     0.068 A 
ATOM      4  Cl  UNL     1      25.942  36.300  13.667  1.00  0.00    -0.082 Cl
ATOM      5  C   UNL     1      24.978  34.034  14.927  1.00  0.00     0.061 A 
ATOM      6  C   UNL     1      23.928  33.235  15.413  1.00  0.00     0.031 A 
ATOM      7  C   UNL     1      22.601  33.647  15.275  1.00  0.00     0.049 A 
ENDROOT
BRANCH   1   8
ATOM      8  O   UNL     1      20.979  35.304  14.451  1.00  0.00    -0.457 OA
BRANCH   8   9
ATOM      9  C   UNL     1      20.000  34.617  13.719  1.00  0.00     0.138 A 
ATOM     10  C   UNL     1      15.908  34.518  14.810  1.00  0.00     0.162 A 
ATOM     11  C   UNL     1      16.828  35.170  15.646  1.00  0.00     0.161 A 
ATOM     12  C   UNL     1      16.360  33.881  13.639  1.00  0.00     0.079 A 
ATOM     13  C   UNL     1      18.194  35.186  15.305  1.00  0.00     0.064 A 
ATOM     14  C   UNL     1      17.714  33.910  13.293  1.00  0.00     0.078 A 
ATOM     15  C   UNL     1      18.643  34.586  14.116  1.00  0.00     0.047 A 
ATOM     16  N   UNL     1      18.134  33.278  12.165  1.00  0.00    -0.256 NA
ATOM     17  C   UNL     1      19.440  33.270  11.793  1.00  0.00     0.115 A 
ATOM     18  C   UNL     1      20.394  33.932  12.566  1.00  0.00     0.068 A 
BRANCH  10  19
ATOM     19  O   UNL     1      14.553  34.523  15.178  1.00  0.00    -0.493 OA
ATOM     20  C   UNL     1      13.515  33.874  14.452  1.00  0.00     0.278 C 
ENDBRANCH  10  19
BRANCH  11  21
ATOM     21  O   UNL     1      16.343  35.794  16.806  1.00  0.00    -0.493 OA
ATOM     22  C   UNL     1      16.568  35.321  18.131  1.00  0.00     0.278 C 
ENDBRANCH  11  21
ENDBRANCH   8   9
ENDBRANCH   1   8
BRANCH   5  23
ATOM     23  N   UNL     1      26.342  33.589  15.033  1.00  0.00    -0.306 N 
ATOM     24  C   UNL     1      26.984  32.750  14.062  1.00  0.00     0.324 C 
ATOM     25  H   UNL     1      26.883  33.840  15.891  1.00  0.00     0.171 HD
ATOM     26  O   UNL     1      26.305  32.195  13.156  1.00  0.00    -0.248 OA
ATOM     27  N   UNL     1      28.399  32.526  14.149  1.00  0.00    -0.289 N 
ATOM     28  H   UNL     1      28.941  33.065  14.862  1.00  0.00     0.173 HD
BRANCH  27  29
ATOM     29  C   UNL     1      29.110  31.583  13.334  1.00  0.00     0.177 A 
ATOM     30  N   UNL     1      29.571  30.391  13.761  1.00  0.00    -0.062 NA
ATOM     31  C   UNL     1      29.447  31.781  12.012  1.00  0.00     0.095 A 
ATOM     32  O   UNL     1      30.179  29.846  12.747  1.00  0.00    -0.360 OA
ATOM     33  C   UNL     1      30.132  30.627  11.692  1.00  0.00     0.135 A 
ATOM     34  C   UNL     1      30.745  30.298  10.372  1.00  0.00     0.091 C 
ENDBRANCH  27  29
ENDBRANCH   5  23
TORSDOF 6
ENDMDL
MODEL 15
REMARK VINA RESULT:    -8.070      6.370      9.837
REMARK INTER + INTRA:         -11.916
REMARK INTER:                 -11.288
REMARK INTRA:                  -0.628
REMARK UNBOUND:                -1.015
REMARK SMILES COc1cc2nccc(Oc3ccc(NC(=O)Nc4cc(C)on4)c(Cl)c3)c2cc1OC
REMARK SMILES IDX 11 1 27 2 25 3 26 4 14 5 13 6 12 7 10 8 9 9 3 10 30 11 4 12
REMARK SMILES IDX 29 13 5 14 28 15 6 16 7 17 8 18 2 19 1 20 31 21 32 22 15 23
REMARK SMILES IDX 16 24 17 26 18 27 19 29 24 30 20 31 23 32 21 33 22 34
REMARK H PARENT 15 25 18 28
REMARK Flexibility Score: inf
ROOT
ATOM      1  C   UNL     1      22.706  33.783  12.724  1.00  0.00     0.129 A 
ATOM      2  C   UNL     1      23.531  34.869  13.029  1.00  0.00     0.069 A 
ATOM      3  C   UNL     1      24.918  34.781  12.868  1.00  0.00     0.068 A 
ATOM      4  Cl  UNL     1      25.904  36.181  13.276  1.00  0.00    -0.082 Cl
ATOM      5  C   UNL     1      25.501  33.582  12.416  1.00  0.00     0.061 A 
ATOM      6  C   UNL     1      24.670  32.488  12.115  1.00  0.00     0.031 A 
ATOM      7  C   UNL     1      23.287  32.583  12.276  1.00  0.00     0.049 A 
ENDROOT
BRANCH   1   8
ATOM      8  O   UNL     1      21.319  33.929  12.883  1.00  0.00    -0.457 OA
BRANCH   8   9
ATOM      9  C   UNL     1      20.661  33.981  14.121  1.00  0.00     0.138 A 
ATOM     10  C   UNL     1      16.448  34.141  14.524  1.00  0.00     0.162 A 
ATOM     11  C   UNL     1      17.019  34.167  13.242  1.00  0.00     0.161 A 
ATOM     12  C   UNL     1      17.281  34.094  15.657  1.00  0.00     0.079 A 
ATOM     13  C   UNL     1      18.419  34.140  13.098  1.00  0.00     0.064 A 
ATOM     14  C   UNL     1      18.671  34.053  15.514  1.00  0.00     0.078 A 
ATOM     15  C   UNL     1      19.253  34.052  14.226  1.00  0.00     0.047 A 
ATOM     16  N   UNL     1      19.461  34.021  16.620  1.00  0.00    -0.256 NA
ATOM     17  C   UNL     1      20.815  33.990  16.532  1.00  0.00     0.115 A 
ATOM     18  C   UNL     1      21.437  33.977  15.284  1.00  0.00     0.068 A 
BRANCH  10  19
ATOM     19  O   UNL     1      15.048  34.166  14.631  1.00  0.00    -0.493 OA
ATOM     20  C   UNL     1      14.332  34.194  15.860  1.00  0.00     0.278 C 
ENDBRANCH  10  19
BRANCH  11  21
ATOM     21  O   UNL     1      16.158  34.215  12.134  1.00  0.00    -0.493 OA
ATOM     22  C   UNL     1      16.538  34.658  10.835  1.00  0.00     0.278 C 
ENDBRANCH  11  21
ENDBRANCH   8   9
ENDBRANCH   1   8
BRANCH   5  23
ATOM     23  N   UNL     1      26.923  33.497  12.210  1.00  0.00    -0.306 N 
ATOM     24  C   UNL     1      27.808  32.760  13.065  1.00  0.00     0.324 C 
ATOM     25  H   UNL     1      27.347  34.049  11.431  1.00  0.00     0.171 HD
ATOM     26  O   UNL     1      27.395  32.308  14.167  1.00  0.00    -0.248 OA
ATOM     27  N   UNL     1      29.174  32.568  12.667  1.00  0.00    -0.289 N 
ATOM     28  H   UNL     1      29.460  32.885  11.713  1.00  0.00     0.173 HD
BRANCH  27  29
ATOM     29  C   UNL     1      30.179  31.991  13.513  1.00  0.00     0.177 A 
ATOM     30  N   UNL     1      31.137  32.688  14.155  1.00  0.00    -0.062 NA
ATOM     31  C   UNL     1      30.320  30.642  13.760  1.00  0.00     0.095 A 
ATOM     32  O   UNL     1      31.864  31.815  14.791  1.00  0.00    -0.360 OA
ATOM     33  C   UNL     1      31.422  30.594  14.591  1.00  0.00     0.135 A 
ATOM     34  C   UNL     1      32.042  29.368  15.170  1.00  0.00     0.091 C 
ENDBRANCH  27  29
ENDBRANCH   5  23
TORSDOF 6
ENDMDL
