MODEL 1
REMARK VINA RESULT:    -8.997      0.000      0.000
REMARK INTER + INTRA:         -12.310
REMARK INTER:                 -11.626
REMARK INTRA:                  -0.683
REMARK UNBOUND:                -0.683
REMARK SMILES CN(C)C(=O)c1cc2cnc(Nc3ccc(N4CCNCC4)cn3)nc2n1C1CCCC1
REMARK SMILES IDX 12 1 11 3 6 4 7 5 27 6 8 7 26 8 9 9 25 10 10 11 4 12 1 13
REMARK SMILES IDX 2 14 3 15 5 16 28 17 29 18 32 19 30 20 31 21 13 22 14 23
REMARK SMILES IDX 24 24 15 25 23 26 16 27 17 28 18 29 22 30 19 31 21 32 20 33
REMARK H PARENT 12 2 20 34
REMARK Flexibility Score: inf
ROOT
ATOM      1  N   UNL     1      12.332  12.658  11.916  1.00  0.00    -0.309 N 
ATOM      2  H   UNL     1      13.053  11.900  11.926  1.00  0.00     0.171 HD
ENDROOT
BRANCH   1   3
ATOM      3  C   UNL     1      11.512  12.792  13.088  1.00  0.00     0.230 A 
ATOM      4  C   UNL     1      10.094  11.915  17.217  1.00  0.00     0.109 A 
ATOM      5  C   UNL     1       9.430  12.968  16.590  1.00  0.00     0.045 A 
ATOM      6  N   UNL     1      11.001  11.326  16.381  1.00  0.00    -0.318 N 
ATOM      7  C   UNL     1       9.984  13.035  15.337  1.00  0.00     0.038 A 
ATOM      8  C   UNL     1      10.926  12.058  15.243  1.00  0.00     0.146 A 
ATOM      9  C   UNL     1       9.784  13.921  14.289  1.00  0.00     0.127 A 
ATOM     10  N   UNL     1      11.704  11.935  14.137  1.00  0.00    -0.194 NA
ATOM     11  N   UNL     1      10.558  13.774  13.176  1.00  0.00    -0.221 NA
BRANCH   4  12
ATOM     12  C   UNL     1       9.939  11.602  18.651  1.00  0.00     0.270 C 
ATOM     13  C   UNL     1       8.214   9.814  18.185  1.00  0.00     0.146 C 
ATOM     14  N   UNL     1       8.919  10.696  19.121  1.00  0.00    -0.343 N 
ATOM     15  C   UNL     1       8.661  10.597  20.561  1.00  0.00     0.146 C 
ATOM     16  O   UNL     1      10.718  12.151  19.475  1.00  0.00    -0.267 OA
ENDBRANCH   4  12
BRANCH   6  17
ATOM     17  C   UNL     1      11.932  10.226  16.726  1.00  0.00     0.089 C 
ATOM     18  C   UNL     1      13.350  10.683  17.061  1.00  0.00     0.025 C 
ATOM     19  C   UNL     1      12.134   9.250  15.561  1.00  0.00     0.025 C 
ATOM     20  C   UNL     1      14.217   9.461  16.830  1.00  0.00     0.002 C 
ATOM     21  C   UNL     1      13.554   8.700  15.689  1.00  0.00     0.002 C 
ENDBRANCH   6  17
ENDBRANCH   1   3
BRANCH   1  22
ATOM     22  C   UNL     1      12.231  13.482  10.740  1.00  0.00     0.132 A 
ATOM     23  C   UNL     1      13.352  14.192  10.290  1.00  0.00     0.049 A 
ATOM     24  N   UNL     1      11.061  13.578  10.050  1.00  0.00    -0.237 NA
ATOM     25  C   UNL     1      13.253  14.986   9.147  1.00  0.00     0.031 A 
ATOM     26  C   UNL     1      10.939  14.345   8.934  1.00  0.00     0.139 A 
ATOM     27  C   UNL     1      12.038  15.070   8.450  1.00  0.00     0.055 A 
BRANCH  27  28
ATOM     28  N   UNL     1      11.926  15.891   7.272  1.00  0.00    -0.368 N 
ATOM     29  C   UNL     1      10.724  16.704   7.061  1.00  0.00     0.132 C 
ATOM     30  C   UNL     1      13.117  16.217   6.482  1.00  0.00     0.132 C 
ATOM     31  C   UNL     1      10.433  16.828   5.561  1.00  0.00     0.102 C 
ATOM     32  C   UNL     1      12.742  16.364   5.003  1.00  0.00     0.102 C 
ATOM     33  N   UNL     1      11.617  17.294   4.827  1.00  0.00    -0.313 NA
ATOM     34  H   UNL     1      11.894  18.237   5.190  1.00  0.00     0.122 HD
ENDBRANCH  27  28
ENDBRANCH   1  22
TORSDOF 5
ENDMDL
MODEL 2
REMARK VINA RESULT:    -8.775      4.858      8.079
REMARK INTER + INTRA:         -12.023
REMARK INTER:                 -10.999
REMARK INTRA:                  -1.024
REMARK UNBOUND:                -0.683
REMARK SMILES CN(C)C(=O)c1cc2cnc(Nc3ccc(N4CCNCC4)cn3)nc2n1C1CCCC1
REMARK SMILES IDX 12 1 11 3 6 4 7 5 27 6 8 7 26 8 9 9 25 10 10 11 4 12 1 13
REMARK SMILES IDX 2 14 3 15 5 16 28 17 29 18 32 19 30 20 31 21 13 22 14 23
REMARK SMILES IDX 24 24 15 25 23 26 16 27 17 28 18 29 22 30 19 31 21 32 20 33
REMARK H PARENT 12 2 20 34
REMARK Flexibility Score: inf
ROOT
ATOM      1  N   UNL     1       9.444  14.080  14.383  1.00  0.00    -0.309 N 
ATOM      2  H   UNL     1       9.341  14.270  13.360  1.00  0.00     0.171 HD
ENDROOT
BRANCH   1   3
ATOM      3  C   UNL     1      10.436  13.115  14.770  1.00  0.00     0.230 A 
ATOM      4  C   UNL     1      12.288   9.913  17.249  1.00  0.00     0.109 A 
ATOM      5  C   UNL     1      13.005  10.241  16.099  1.00  0.00     0.045 A 
ATOM      6  N   UNL     1      11.191  10.715  17.400  1.00  0.00    -0.318 N 
ATOM      7  C   UNL     1      12.292  11.260  15.520  1.00  0.00     0.038 A 
ATOM      8  C   UNL     1      11.210  11.512  16.306  1.00  0.00     0.146 A 
ATOM      9  C   UNL     1      12.469  11.944  14.327  1.00  0.00     0.127 A 
ATOM     10  N   UNL     1      10.271  12.421  15.937  1.00  0.00    -0.194 NA
ATOM     11  N   UNL     1      11.529  12.868  13.979  1.00  0.00    -0.221 NA
BRANCH   4  12
ATOM     12  C   UNL     1      12.600   8.740  18.088  1.00  0.00     0.270 C 
ATOM     13  C   UNL     1      13.844  10.146  19.781  1.00  0.00     0.146 C 
ATOM     14  N   UNL     1      13.482   8.837  19.226  1.00  0.00    -0.343 N 
ATOM     15  C   UNL     1      13.937   7.608  19.884  1.00  0.00     0.146 C 
ATOM     16  O   UNL     1      12.083   7.630  17.788  1.00  0.00    -0.267 OA
ENDBRANCH   4  12
BRANCH   6  17
ATOM     17  C   UNL     1      10.165  10.610  18.465  1.00  0.00     0.089 C 
ATOM     18  C   UNL     1       8.813  10.087  17.986  1.00  0.00     0.025 C 
ATOM     19  C   UNL     1       9.827  11.974  19.080  1.00  0.00     0.025 C 
ATOM     20  C   UNL     1       7.819  10.574  19.023  1.00  0.00     0.002 C 
ATOM     21  C   UNL     1       8.364  11.909  19.515  1.00  0.00     0.002 C 
ENDBRANCH   6  17
ENDBRANCH   1   3
BRANCH   1  22
ATOM     22  C   UNL     1       8.587  14.792  15.294  1.00  0.00     0.132 A 
ATOM     23  C   UNL     1       7.197  14.736  15.129  1.00  0.00     0.049 A 
ATOM     24  N   UNL     1       9.106  15.518  16.323  1.00  0.00    -0.237 NA
ATOM     25  C   UNL     1       6.368  15.425  16.016  1.00  0.00     0.031 A 
ATOM     26  C   UNL     1       8.321  16.197  17.199  1.00  0.00     0.139 A 
ATOM     27  C   UNL     1       6.924  16.165  17.069  1.00  0.00     0.055 A 
BRANCH  27  28
ATOM     28  N   UNL     1       6.076  16.882  17.987  1.00  0.00    -0.368 N 
ATOM     29  C   UNL     1       6.635  17.410  19.237  1.00  0.00     0.132 C 
ATOM     30  C   UNL     1       4.785  17.413  17.540  1.00  0.00     0.132 C 
ATOM     31  C   UNL     1       5.566  17.392  20.335  1.00  0.00     0.102 C 
ATOM     32  C   UNL     1       3.782  17.401  18.700  1.00  0.00     0.102 C 
ATOM     33  N   UNL     1       4.336  18.061  19.891  1.00  0.00    -0.313 NA
ATOM     34  H   UNL     1       4.555  19.059  19.658  1.00  0.00     0.122 HD
ENDBRANCH  27  28
ENDBRANCH   1  22
TORSDOF 5
ENDMDL
MODEL 3
REMARK VINA RESULT:    -8.693      3.097     10.143
REMARK INTER + INTRA:         -11.918
REMARK INTER:                 -11.010
REMARK INTRA:                  -0.908
REMARK UNBOUND:                -0.683
REMARK SMILES CN(C)C(=O)c1cc2cnc(Nc3ccc(N4CCNCC4)cn3)nc2n1C1CCCC1
REMARK SMILES IDX 12 1 11 3 6 4 7 5 27 6 8 7 26 8 9 9 25 10 10 11 4 12 1 13
REMARK SMILES IDX 2 14 3 15 5 16 28 17 29 18 32 19 30 20 31 21 13 22 14 23
REMARK SMILES IDX 24 24 15 25 23 26 16 27 17 28 18 29 22 30 19 31 21 32 20 33
REMARK H PARENT 12 2 20 34
REMARK Flexibility Score: inf
ROOT
ATOM      1  N   UNL     1       8.684  12.911  18.460  1.00  0.00    -0.309 N 
ATOM      2  H   UNL     1       7.799  13.166  18.956  1.00  0.00     0.171 HD
ENDROOT
BRANCH   1   3
ATOM      3  C   UNL     1       8.849  13.413  17.123  1.00  0.00     0.230 A 
ATOM      4  C   UNL     1      10.611  13.703  13.044  1.00  0.00     0.109 A 
ATOM      5  C   UNL     1       9.524  14.547  13.265  1.00  0.00     0.045 A 
ATOM      6  N   UNL     1      10.947  13.013  14.176  1.00  0.00    -0.318 N 
ATOM      7  C   UNL     1       9.173  14.332  14.573  1.00  0.00     0.038 A 
ATOM      8  C   UNL     1      10.025  13.403  15.088  1.00  0.00     0.146 A 
ATOM      9  C   UNL     1       8.128  14.827  15.339  1.00  0.00     0.127 A 
ATOM     10  N   UNL     1       9.866  12.926  16.349  1.00  0.00    -0.194 NA
ATOM     11  N   UNL     1       7.992  14.354  16.610  1.00  0.00    -0.221 NA
BRANCH   4  12
ATOM     12  C   UNL     1      11.201  13.477  11.710  1.00  0.00     0.270 C 
ATOM     13  C   UNL     1      13.252  14.847  12.266  1.00  0.00     0.146 C 
ATOM     14  N   UNL     1      12.400  14.159  11.289  1.00  0.00    -0.343 N 
ATOM     15  C   UNL     1      12.813  14.074   9.885  1.00  0.00     0.146 C 
ATOM     16  O   UNL     1      10.628  12.673  10.927  1.00  0.00    -0.267 OA
ENDBRANCH   4  12
BRANCH   6  17
ATOM     17  C   UNL     1      12.003  11.980  14.296  1.00  0.00     0.089 C 
ATOM     18  C   UNL     1      11.477  10.571  14.562  1.00  0.00     0.025 C 
ATOM     19  C   UNL     1      12.940  12.244  15.480  1.00  0.00     0.025 C 
ATOM     20  C   UNL     1      12.646   9.831  15.185  1.00  0.00     0.002 C 
ATOM     21  C   UNL     1      13.416  10.879  15.977  1.00  0.00     0.002 C 
ENDBRANCH   6  17
ENDBRANCH   1   3
BRANCH   1  22
ATOM     22  C   UNL     1       9.637  12.087  19.155  1.00  0.00     0.132 A 
ATOM     23  C   UNL     1      10.996  12.429  19.136  1.00  0.00     0.049 A 
ATOM     24  N   UNL     1       9.239  10.980  19.841  1.00  0.00    -0.237 NA
ATOM     25  C   UNL     1      11.918  11.631  19.815  1.00  0.00     0.031 A 
ATOM     26  C   UNL     1      10.117  10.187  20.509  1.00  0.00     0.139 A 
ATOM     27  C   UNL     1      11.486  10.495  20.516  1.00  0.00     0.055 A 
BRANCH  27  28
ATOM     28  N   UNL     1      12.431   9.664  21.216  1.00  0.00    -0.368 N 
ATOM     29  C   UNL     1      13.322   8.776  20.460  1.00  0.00     0.132 C 
ATOM     30  C   UNL     1      12.779   9.952  22.611  1.00  0.00     0.132 C 
ATOM     31  C   UNL     1      13.618   7.514  21.278  1.00  0.00     0.102 C 
ATOM     32  C   UNL     1      13.101   8.650  23.352  1.00  0.00     0.102 C 
ATOM     33  N   UNL     1      14.100   7.853  22.624  1.00  0.00    -0.313 NA
ATOM     34  H   UNL     1      14.984   8.409  22.540  1.00  0.00     0.122 HD
ENDBRANCH  27  28
ENDBRANCH   1  22
TORSDOF 5
ENDMDL
MODEL 4
REMARK VINA RESULT:    -8.655      1.623      1.874
REMARK INTER + INTRA:         -11.869
REMARK INTER:                 -11.648
REMARK INTRA:                  -0.221
REMARK UNBOUND:                -0.683
REMARK SMILES CN(C)C(=O)c1cc2cnc(Nc3ccc(N4CCNCC4)cn3)nc2n1C1CCCC1
REMARK SMILES IDX 12 1 11 3 6 4 7 5 27 6 8 7 26 8 9 9 25 10 10 11 4 12 1 13
REMARK SMILES IDX 2 14 3 15 5 16 28 17 29 18 32 19 30 20 31 21 13 22 14 23
REMARK SMILES IDX 24 24 15 25 23 26 16 27 17 28 18 29 22 30 19 31 21 32 20 33
REMARK H PARENT 12 2 20 34
REMARK Flexibility Score: inf
ROOT
ATOM      1  N   UNL     1      13.198  14.210  13.755  1.00  0.00    -0.309 N 
ATOM      2  H   UNL     1      14.077  14.351  14.304  1.00  0.00     0.171 HD
ENDROOT
BRANCH   1   3
ATOM      3  C   UNL     1      12.034  13.791  14.485  1.00  0.00     0.230 A 
ATOM      4  C   UNL     1       9.561  11.161  17.092  1.00  0.00     0.109 A 
ATOM      5  C   UNL     1       8.941  12.353  16.721  1.00  0.00     0.045 A 
ATOM      6  N   UNL     1      10.787  11.029  16.502  1.00  0.00    -0.318 N 
ATOM      7  C   UNL     1       9.845  12.977  15.899  1.00  0.00     0.038 A 
ATOM      8  C   UNL     1      10.941  12.176  15.798  1.00  0.00     0.146 A 
ATOM      9  C   UNL     1       9.824  14.218  15.282  1.00  0.00     0.127 A 
ATOM     10  N   UNL     1      12.042  12.575  15.111  1.00  0.00    -0.194 NA
ATOM     11  N   UNL     1      10.928  14.598  14.579  1.00  0.00    -0.221 NA
BRANCH   4  12
ATOM     12  C   UNL     1       9.016  10.254  18.122  1.00  0.00     0.270 C 
ATOM     13  C   UNL     1       8.568  12.162  19.719  1.00  0.00     0.146 C 
ATOM     14  N   UNL     1       8.683  10.725  19.444  1.00  0.00    -0.343 N 
ATOM     15  C   UNL     1       8.364   9.748  20.490  1.00  0.00     0.146 C 
ATOM     16  O   UNL     1       8.850   9.040  17.827  1.00  0.00    -0.267 OA
ENDBRANCH   4  12
BRANCH   6  17
ATOM     17  C   UNL     1      11.754   9.927  16.720  1.00  0.00     0.089 C 
ATOM     18  C   UNL     1      13.041  10.349  17.426  1.00  0.00     0.025 C 
ATOM     19  C   UNL     1      12.250   9.323  15.401  1.00  0.00     0.025 C 
ATOM     20  C   UNL     1      14.055   9.286  17.054  1.00  0.00     0.002 C 
ATOM     21  C   UNL     1      13.677   8.835  15.649  1.00  0.00     0.002 C 
ENDBRANCH   6  17
ENDBRANCH   1   3
BRANCH   1  22
ATOM     22  C   UNL     1      13.242  14.444  12.336  1.00  0.00     0.132 A 
ATOM     23  C   UNL     1      13.283  13.357  11.453  1.00  0.00     0.049 A 
ATOM     24  N   UNL     1      13.236  15.709  11.833  1.00  0.00    -0.237 NA
ATOM     25  C   UNL     1      13.320  13.586  10.077  1.00  0.00     0.031 A 
ATOM     26  C   UNL     1      13.273  15.959  10.497  1.00  0.00     0.139 A 
ATOM     27  C   UNL     1      13.313  14.898   9.580  1.00  0.00     0.055 A 
BRANCH  27  28
ATOM     28  N   UNL     1      13.356  15.143   8.161  1.00  0.00    -0.368 N 
ATOM     29  C   UNL     1      12.143  15.578   7.459  1.00  0.00     0.132 C 
ATOM     30  C   UNL     1      14.641  15.330   7.482  1.00  0.00     0.132 C 
ATOM     31  C   UNL     1      12.148  15.036   6.025  1.00  0.00     0.102 C 
ATOM     32  C   UNL     1      14.557  14.803   6.044  1.00  0.00     0.102 C 
ATOM     33  N   UNL     1      13.400  15.370   5.335  1.00  0.00    -0.313 NA
ATOM     34  H   UNL     1      13.502  16.412   5.296  1.00  0.00     0.122 HD
ENDBRANCH  27  28
ENDBRANCH   1  22
TORSDOF 5
ENDMDL
MODEL 5
REMARK VINA RESULT:    -8.500      2.900      4.832
REMARK INTER + INTRA:         -11.668
REMARK INTER:                 -10.732
REMARK INTRA:                  -0.937
REMARK UNBOUND:                -0.683
REMARK SMILES CN(C)C(=O)c1cc2cnc(Nc3ccc(N4CCNCC4)cn3)nc2n1C1CCCC1
REMARK SMILES IDX 12 1 11 3 6 4 7 5 27 6 8 7 26 8 9 9 25 10 10 11 4 12 1 13
REMARK SMILES IDX 2 14 3 15 5 16 28 17 29 18 32 19 30 20 31 21 13 22 14 23
REMARK SMILES IDX 24 24 15 25 23 26 16 27 17 28 18 29 22 30 19 31 21 32 20 33
REMARK H PARENT 12 2 20 34
REMARK Flexibility Score: inf
ROOT
ATOM      1  N   UNL     1      10.480  13.456  16.579  1.00  0.00    -0.309 N 
ATOM      2  H   UNL     1      10.436  14.266  17.240  1.00  0.00     0.171 HD
ENDROOT
BRANCH   1   3
ATOM      3  C   UNL     1      10.640  12.151  17.157  1.00  0.00     0.230 A 
ATOM      4  C   UNL     1      12.757   8.805  19.195  1.00  0.00     0.109 A 
ATOM      5  C   UNL     1      11.407   8.565  18.942  1.00  0.00     0.045 A 
ATOM      6  N   UNL     1      13.156  10.009  18.685  1.00  0.00    -0.318 N 
ATOM      7  C   UNL     1      10.970   9.685  18.281  1.00  0.00     0.038 A 
ATOM      8  C   UNL     1      12.026  10.535  18.155  1.00  0.00     0.146 A 
ATOM      9  C   UNL     1       9.711  10.059  17.838  1.00  0.00     0.127 A 
ATOM     10  N   UNL     1      11.872  11.770  17.612  1.00  0.00    -0.194 NA
ATOM     11  N   UNL     1       9.575  11.294  17.276  1.00  0.00    -0.221 NA
BRANCH   4  12
ATOM     12  C   UNL     1      13.586   7.932  20.049  1.00  0.00     0.270 C 
ATOM     13  C   UNL     1      13.010   9.244  22.132  1.00  0.00     0.146 C 
ATOM     14  N   UNL     1      13.826   8.241  21.437  1.00  0.00    -0.343 N 
ATOM     15  C   UNL     1      14.834   7.473  22.176  1.00  0.00     0.146 C 
ATOM     16  O   UNL     1      14.096   6.899  19.539  1.00  0.00    -0.267 OA
ENDBRANCH   4  12
BRANCH   6  17
ATOM     17  C   UNL     1      14.498  10.622  18.824  1.00  0.00     0.089 C 
ATOM     18  C   UNL     1      14.564  11.773  19.826  1.00  0.00     0.025 C 
ATOM     19  C   UNL     1      14.983  11.257  17.515  1.00  0.00     0.025 C 
ATOM     20  C   UNL     1      15.783  12.575  19.416  1.00  0.00     0.002 C 
ATOM     21  C   UNL     1      15.873  12.437  17.902  1.00  0.00     0.002 C 
ENDBRANCH   6  17
ENDBRANCH   1   3
BRANCH   1  22
ATOM     22  C   UNL     1      10.381  13.727  15.169  1.00  0.00     0.132 A 
ATOM     23  C   UNL     1      11.030  12.891  14.252  1.00  0.00     0.049 A 
ATOM     24  N   UNL     1       9.655  14.784  14.708  1.00  0.00    -0.237 NA
ATOM     25  C   UNL     1      10.928  13.153  12.885  1.00  0.00     0.031 A 
ATOM     26  C   UNL     1       9.541  15.061  13.382  1.00  0.00     0.139 A 
ATOM     27  C   UNL     1      10.176  14.247  12.432  1.00  0.00     0.055 A 
BRANCH  27  28
ATOM     28  N   UNL     1      10.068  14.527  11.023  1.00  0.00    -0.368 N 
ATOM     29  C   UNL     1      10.948  13.837  10.072  1.00  0.00     0.132 C 
ATOM     30  C   UNL     1       8.874  15.190  10.490  1.00  0.00     0.132 C 
ATOM     31  C   UNL     1      11.251  14.754   8.882  1.00  0.00     0.102 C 
ATOM     32  C   UNL     1       9.250  16.054   9.280  1.00  0.00     0.102 C 
ATOM     33  N   UNL     1      10.016  15.283   8.290  1.00  0.00    -0.313 NA
ATOM     34  H   UNL     1       9.429  14.484   7.952  1.00  0.00     0.122 HD
ENDBRANCH  27  28
ENDBRANCH   1  22
TORSDOF 5
ENDMDL
MODEL 6
REMARK VINA RESULT:    -8.425      3.822      5.297
REMARK INTER + INTRA:         -11.571
REMARK INTER:                 -10.792
REMARK INTRA:                  -0.779
REMARK UNBOUND:                -0.683
REMARK SMILES CN(C)C(=O)c1cc2cnc(Nc3ccc(N4CCNCC4)cn3)nc2n1C1CCCC1
REMARK SMILES IDX 12 1 11 3 6 4 7 5 27 6 8 7 26 8 9 9 25 10 10 11 4 12 1 13
REMARK SMILES IDX 2 14 3 15 5 16 28 17 29 18 32 19 30 20 31 21 13 22 14 23
REMARK SMILES IDX 24 24 15 25 23 26 16 27 17 28 18 29 22 30 19 31 21 32 20 33
REMARK H PARENT 12 2 20 34
REMARK Flexibility Score: inf
ROOT
ATOM      1  N   UNL     1      12.824  12.564  14.476  1.00  0.00    -0.309 N 
ATOM      2  H   UNL     1      13.753  13.025  14.336  1.00  0.00     0.171 HD
ENDROOT
BRANCH   1   3
ATOM      3  C   UNL     1      12.804  11.367  15.270  1.00  0.00     0.230 A 
ATOM      4  C   UNL     1      13.680   8.759  18.771  1.00  0.00     0.109 A 
ATOM      5  C   UNL     1      12.869   8.171  17.802  1.00  0.00     0.045 A 
ATOM      6  N   UNL     1      14.095  10.004  18.388  1.00  0.00    -0.318 N 
ATOM      7  C   UNL     1      12.766   9.115  16.811  1.00  0.00     0.038 A 
ATOM      8  C   UNL     1      13.491  10.202  17.192  1.00  0.00     0.146 A 
ATOM      9  C   UNL     1      12.036   9.135  15.632  1.00  0.00     0.127 A 
ATOM     10  N   UNL     1      13.506  11.334  16.443  1.00  0.00    -0.194 NA
ATOM     11  N   UNL     1      12.076  10.271  14.880  1.00  0.00    -0.221 NA
BRANCH   4  12
ATOM     12  C   UNL     1      13.912   8.162  20.101  1.00  0.00     0.270 C 
ATOM     13  C   UNL     1      12.127   9.595  21.173  1.00  0.00     0.146 C 
ATOM     14  N   UNL     1      13.267   8.679  21.283  1.00  0.00    -0.343 N 
ATOM     15  C   UNL     1      13.703   8.202  22.599  1.00  0.00     0.146 C 
ATOM     16  O   UNL     1      14.700   7.183  20.192  1.00  0.00    -0.267 OA
ENDBRANCH   4  12
BRANCH   6  17
ATOM     17  C   UNL     1      14.909  10.946  19.193  1.00  0.00     0.089 C 
ATOM     18  C   UNL     1      14.121  12.115  19.781  1.00  0.00     0.025 C 
ATOM     19  C   UNL     1      15.997  11.631  18.358  1.00  0.00     0.025 C 
ATOM     20  C   UNL     1      15.159  13.186  20.052  1.00  0.00     0.002 C 
ATOM     21  C   UNL     1      16.215  13.015  18.968  1.00  0.00     0.002 C 
ENDBRANCH   6  17
ENDBRANCH   1   3
BRANCH   1  22
ATOM     22  C   UNL     1      11.670  13.167  13.861  1.00  0.00     0.132 A 
ATOM     23  C   UNL     1      10.662  13.715  14.664  1.00  0.00     0.049 A 
ATOM     24  N   UNL     1      11.545  13.220  12.506  1.00  0.00    -0.237 NA
ATOM     25  C   UNL     1       9.546  14.303  14.065  1.00  0.00     0.031 A 
ATOM     26  C   UNL     1      10.469  13.786  11.899  1.00  0.00     0.139 A 
ATOM     27  C   UNL     1       9.438  14.347  12.668  1.00  0.00     0.055 A 
BRANCH  27  28
ATOM     28  N   UNL     1       8.288  14.948  12.042  1.00  0.00    -0.368 N 
ATOM     29  C   UNL     1       7.951  14.608  10.655  1.00  0.00     0.132 C 
ATOM     30  C   UNL     1       7.252  15.589  12.858  1.00  0.00     0.132 C 
ATOM     31  C   UNL     1       7.302  15.814   9.965  1.00  0.00     0.102 C 
ATOM     32  C   UNL     1       6.623  16.756  12.088  1.00  0.00     0.102 C 
ATOM     33  N   UNL     1       6.177  16.336  10.752  1.00  0.00    -0.313 NA
ATOM     34  H   UNL     1       5.455  15.584  10.854  1.00  0.00     0.122 HD
ENDBRANCH  27  28
ENDBRANCH   1  22
TORSDOF 5
ENDMDL
MODEL 7
REMARK VINA RESULT:    -8.393      6.192      7.910
REMARK INTER + INTRA:         -11.530
REMARK INTER:                 -10.658
REMARK INTRA:                  -0.871
REMARK UNBOUND:                -0.683
REMARK SMILES CN(C)C(=O)c1cc2cnc(Nc3ccc(N4CCNCC4)cn3)nc2n1C1CCCC1
REMARK SMILES IDX 12 1 11 3 6 4 7 5 27 6 8 7 26 8 9 9 25 10 10 11 4 12 1 13
REMARK SMILES IDX 2 14 3 15 5 16 28 17 29 18 32 19 30 20 31 21 13 22 14 23
REMARK SMILES IDX 24 24 15 25 23 26 16 27 17 28 18 29 22 30 19 31 21 32 20 33
REMARK H PARENT 12 2 20 34
REMARK Flexibility Score: inf
ROOT
ATOM      1  N   UNL     1      10.332  13.783  16.897  1.00  0.00    -0.309 N 
ATOM      2  H   UNL     1      11.187  14.278  16.554  1.00  0.00     0.171 HD
ENDROOT
BRANCH   1   3
ATOM      3  C   UNL     1      10.499  12.429  17.346  1.00  0.00     0.230 A 
ATOM      4  C   UNL     1      12.630   8.916  19.064  1.00  0.00     0.109 A 
ATOM      5  C   UNL     1      11.284   8.692  18.778  1.00  0.00     0.045 A 
ATOM      6  N   UNL     1      13.022  10.168  18.677  1.00  0.00    -0.318 N 
ATOM      7  C   UNL     1      10.842   9.868  18.227  1.00  0.00     0.038 A 
ATOM      8  C   UNL     1      11.891  10.734  18.192  1.00  0.00     0.146 A 
ATOM      9  C   UNL     1       9.583  10.273  17.812  1.00  0.00     0.127 A 
ATOM     10  N   UNL     1      11.731  12.015  17.772  1.00  0.00    -0.194 NA
ATOM     11  N   UNL     1       9.440  11.556  17.373  1.00  0.00    -0.221 NA
BRANCH   4  12
ATOM     12  C   UNL     1      13.460   7.971  19.835  1.00  0.00     0.270 C 
ATOM     13  C   UNL     1      13.014   9.183  22.008  1.00  0.00     0.146 C 
ATOM     14  N   UNL     1      13.766   8.195  21.227  1.00  0.00    -0.343 N 
ATOM     15  C   UNL     1      14.774   7.354  21.880  1.00  0.00     0.146 C 
ATOM     16  O   UNL     1      13.913   6.951  19.249  1.00  0.00    -0.267 OA
ENDBRANCH   4  12
BRANCH   6  17
ATOM     17  C   UNL     1      14.358  10.775  18.885  1.00  0.00     0.089 C 
ATOM     18  C   UNL     1      14.355  12.012  19.780  1.00  0.00     0.025 C 
ATOM     19  C   UNL     1      14.976  11.279  17.576  1.00  0.00     0.025 C 
ATOM     20  C   UNL     1      15.623  12.759  19.415  1.00  0.00     0.002 C 
ATOM     21  C   UNL     1      15.850  12.480  17.935  1.00  0.00     0.002 C 
ENDBRANCH   6  17
ENDBRANCH   1   3
BRANCH   1  22
ATOM     22  C   UNL     1       9.084  14.499  16.882  1.00  0.00     0.132 A 
ATOM     23  C   UNL     1       8.274  14.462  15.740  1.00  0.00     0.049 A 
ATOM     24  N   UNL     1       8.670  15.209  17.968  1.00  0.00    -0.237 NA
ATOM     25  C   UNL     1       7.062  15.154  15.730  1.00  0.00     0.031 A 
ATOM     26  C   UNL     1       7.494  15.891  17.984  1.00  0.00     0.139 A 
ATOM     27  C   UNL     1       6.655  15.878  16.860  1.00  0.00     0.055 A 
BRANCH  27  28
ATOM     28  N   UNL     1       5.407  16.598  16.856  1.00  0.00    -0.368 N 
ATOM     29  C   UNL     1       5.014  17.383  18.032  1.00  0.00     0.132 C 
ATOM     30  C   UNL     1       4.711  16.866  15.594  1.00  0.00     0.132 C 
ATOM     31  C   UNL     1       3.488  17.381  18.176  1.00  0.00     0.102 C 
ATOM     32  C   UNL     1       3.195  16.889  15.824  1.00  0.00     0.102 C 
ATOM     33  N   UNL     1       2.835  17.793  16.926  1.00  0.00    -0.313 NA
ATOM     34  H   UNL     1       3.144  18.765  16.684  1.00  0.00     0.122 HD
ENDBRANCH  27  28
ENDBRANCH   1  22
TORSDOF 5
ENDMDL
MODEL 8
REMARK VINA RESULT:    -8.378      4.773     11.821
REMARK INTER + INTRA:         -11.510
REMARK INTER:                 -10.507
REMARK INTRA:                  -1.003
REMARK UNBOUND:                -0.683
REMARK SMILES CN(C)C(=O)c1cc2cnc(Nc3ccc(N4CCNCC4)cn3)nc2n1C1CCCC1
REMARK SMILES IDX 12 1 11 3 6 4 7 5 27 6 8 7 26 8 9 9 25 10 10 11 4 12 1 13
REMARK SMILES IDX 2 14 3 15 5 16 28 17 29 18 32 19 30 20 31 21 13 22 14 23
REMARK SMILES IDX 24 24 15 25 23 26 16 27 17 28 18 29 22 30 19 31 21 32 20 33
REMARK H PARENT 12 2 20 34
REMARK Flexibility Score: inf
ROOT
ATOM      1  N   UNL     1      13.171   8.821  20.525  1.00  0.00    -0.309 N 
ATOM      2  H   UNL     1      13.121   7.778  20.594  1.00  0.00     0.171 HD
ENDROOT
BRANCH   1   3
ATOM      3  C   UNL     1      13.214   9.384  19.204  1.00  0.00     0.230 A 
ATOM      4  C   UNL     1      11.719  11.609  15.649  1.00  0.00     0.109 A 
ATOM      5  C   UNL     1      13.038  11.170  15.542  1.00  0.00     0.045 A 
ATOM      6  N   UNL     1      11.143  11.187  16.814  1.00  0.00    -0.318 N 
ATOM      7  C   UNL     1      13.274  10.484  16.706  1.00  0.00     0.038 A 
ATOM      8  C   UNL     1      12.136  10.521  17.453  1.00  0.00     0.146 A 
ATOM      9  C   UNL     1      14.420   9.883  17.204  1.00  0.00     0.127 A 
ATOM     10  N   UNL     1      12.097   9.993  18.702  1.00  0.00    -0.194 NA
ATOM     11  N   UNL     1      14.361   9.338  18.452  1.00  0.00    -0.221 NA
BRANCH   4  12
ATOM     12  C   UNL     1      11.100  12.547  14.691  1.00  0.00     0.270 C 
ATOM     13  C   UNL     1      11.678  14.553  16.117  1.00  0.00     0.146 C 
ATOM     14  N   UNL     1      10.947  13.948  14.997  1.00  0.00    -0.343 N 
ATOM     15  C   UNL     1      10.127  14.785  14.116  1.00  0.00     0.146 C 
ATOM     16  O   UNL     1      10.693  12.097  13.586  1.00  0.00    -0.267 OA
ENDBRANCH   4  12
BRANCH   6  17
ATOM     17  C   UNL     1       9.781  11.520  17.294  1.00  0.00     0.089 C 
ATOM     18  C   UNL     1       9.751  12.432  18.519  1.00  0.00     0.025 C 
ATOM     19  C   UNL     1       9.008  10.278  17.752  1.00  0.00     0.025 C 
ATOM     20  C   UNL     1       8.393  12.192  19.149  1.00  0.00     0.002 C 
ATOM     21  C   UNL     1       8.063  10.732  18.864  1.00  0.00     0.002 C 
ENDBRANCH   6  17
ENDBRANCH   1   3
BRANCH   1  22
ATOM     22  C   UNL     1      13.196   9.580  21.747  1.00  0.00     0.132 A 
ATOM     23  C   UNL     1      13.614  10.917  21.727  1.00  0.00     0.049 A 
ATOM     24  N   UNL     1      12.810   9.022  22.928  1.00  0.00    -0.237 NA
ATOM     25  C   UNL     1      13.632  11.653  22.913  1.00  0.00     0.031 A 
ATOM     26  C   UNL     1      12.820   9.716  24.096  1.00  0.00     0.139 A 
ATOM     27  C   UNL     1      13.230  11.058  24.118  1.00  0.00     0.055 A 
BRANCH  27  28
ATOM     28  N   UNL     1      13.250  11.809  25.347  1.00  0.00    -0.368 N 
ATOM     29  C   UNL     1      12.828  11.171  26.599  1.00  0.00     0.132 C 
ATOM     30  C   UNL     1      14.021  13.052  25.441  1.00  0.00     0.132 C 
ATOM     31  C   UNL     1      12.181  12.210  27.522  1.00  0.00     0.102 C 
ATOM     32  C   UNL     1      13.336  14.022  26.411  1.00  0.00     0.102 C 
ATOM     33  N   UNL     1      13.053  13.378  27.701  1.00  0.00    -0.313 NA
ATOM     34  H   UNL     1      13.956  13.067  28.133  1.00  0.00     0.122 HD
ENDBRANCH  27  28
ENDBRANCH   1  22
TORSDOF 5
ENDMDL
MODEL 9
REMARK VINA RESULT:    -8.310      4.339      9.630
REMARK INTER + INTRA:         -11.422
REMARK INTER:                 -10.772
REMARK INTRA:                  -0.650
REMARK UNBOUND:                -0.683
REMARK SMILES CN(C)C(=O)c1cc2cnc(Nc3ccc(N4CCNCC4)cn3)nc2n1C1CCCC1
REMARK SMILES IDX 12 1 11 3 6 4 7 5 27 6 8 7 26 8 9 9 25 10 10 11 4 12 1 13
REMARK SMILES IDX 2 14 3 15 5 16 28 17 29 18 32 19 30 20 31 21 13 22 14 23
REMARK SMILES IDX 24 24 15 25 23 26 16 27 17 28 18 29 22 30 19 31 21 32 20 33
REMARK H PARENT 12 2 20 34
REMARK Flexibility Score: inf
ROOT
ATOM      1  N   UNL     1      13.073  11.188  15.314  1.00  0.00    -0.309 N 
ATOM      2  H   UNL     1      13.818  10.910  14.634  1.00  0.00     0.171 HD
ENDROOT
BRANCH   1   3
ATOM      3  C   UNL     1      12.091  12.131  14.855  1.00  0.00     0.230 A 
ATOM      4  C   UNL     1       8.372  14.575  15.009  1.00  0.00     0.109 A 
ATOM      5  C   UNL     1       9.168  14.806  13.889  1.00  0.00     0.045 A 
ATOM      6  N   UNL     1       8.885  13.577  15.791  1.00  0.00    -0.318 N 
ATOM      7  C   UNL     1      10.218  13.932  14.019  1.00  0.00     0.038 A 
ATOM      8  C   UNL     1      10.034  13.224  15.167  1.00  0.00     0.146 A 
ATOM      9  C   UNL     1      11.361  13.747  13.256  1.00  0.00     0.127 A 
ATOM     10  N   UNL     1      10.964  12.337  15.602  1.00  0.00    -0.194 NA
ATOM     11  N   UNL     1      12.278  12.838  13.694  1.00  0.00    -0.221 NA
BRANCH   4  12
ATOM     12  C   UNL     1       7.220  15.424  15.370  1.00  0.00     0.270 C 
ATOM     13  C   UNL     1       8.692  17.103  16.556  1.00  0.00     0.146 C 
ATOM     14  N   UNL     1       7.364  16.560  16.248  1.00  0.00    -0.343 N 
ATOM     15  C   UNL     1       6.161  17.228  16.754  1.00  0.00     0.146 C 
ATOM     16  O   UNL     1       6.088  15.135  14.899  1.00  0.00    -0.267 OA
ENDBRANCH   4  12
BRANCH   6  17
ATOM     17  C   UNL     1       8.344  13.112  17.090  1.00  0.00     0.089 C 
ATOM     18  C   UNL     1       8.942  13.814  18.308  1.00  0.00     0.025 C 
ATOM     19  C   UNL     1       8.645  11.630  17.346  1.00  0.00     0.025 C 
ATOM     20  C   UNL     1       8.704  12.860  19.462  1.00  0.00     0.002 C 
ATOM     21  C   UNL     1       8.779  11.463  18.859  1.00  0.00     0.002 C 
ENDBRANCH   6  17
ENDBRANCH   1   3
BRANCH   1  22
ATOM     22  C   UNL     1      13.108  10.608  16.631  1.00  0.00     0.132 A 
ATOM     23  C   UNL     1      14.316  10.561  17.338  1.00  0.00     0.049 A 
ATOM     24  N   UNL     1      11.979  10.110  17.207  1.00  0.00    -0.237 NA
ATOM     25  C   UNL     1      14.345  10.002  18.617  1.00  0.00     0.031 A 
ATOM     26  C   UNL     1      11.982   9.560  18.450  1.00  0.00     0.139 A 
ATOM     27  C   UNL     1      13.171   9.494  19.191  1.00  0.00     0.055 A 
BRANCH  27  28
ATOM     28  N   UNL     1      13.193   8.912  20.509  1.00  0.00    -0.368 N 
ATOM     29  C   UNL     1      12.462   9.558  21.605  1.00  0.00     0.132 C 
ATOM     30  C   UNL     1      13.609   7.519  20.695  1.00  0.00     0.132 C 
ATOM     31  C   UNL     1      13.193   9.321  22.931  1.00  0.00     0.102 C 
ATOM     32  C   UNL     1      14.294   7.352  22.056  1.00  0.00     0.102 C 
ATOM     33  N   UNL     1      13.463   7.893  23.142  1.00  0.00    -0.313 NA
ATOM     34  H   UNL     1      12.554   7.373  23.167  1.00  0.00     0.122 HD
ENDBRANCH  27  28
ENDBRANCH   1  22
TORSDOF 5
ENDMDL
MODEL 10
REMARK VINA RESULT:    -8.266      3.994      9.039
REMARK INTER + INTRA:         -11.366
REMARK INTER:                 -10.301
REMARK INTRA:                  -1.065
REMARK UNBOUND:                -0.683
REMARK SMILES CN(C)C(=O)c1cc2cnc(Nc3ccc(N4CCNCC4)cn3)nc2n1C1CCCC1
REMARK SMILES IDX 12 1 11 3 6 4 7 5 27 6 8 7 26 8 9 9 25 10 10 11 4 12 1 13
REMARK SMILES IDX 2 14 3 15 5 16 28 17 29 18 32 19 30 20 31 21 13 22 14 23
REMARK SMILES IDX 24 24 15 25 23 26 16 27 17 28 18 29 22 30 19 31 21 32 20 33
REMARK H PARENT 12 2 20 34
REMARK Flexibility Score: inf
ROOT
ATOM      1  N   UNL     1      11.976  11.358  13.855  1.00  0.00    -0.309 N 
ATOM      2  H   UNL     1      12.488  10.960  13.034  1.00  0.00     0.171 HD
ENDROOT
BRANCH   1   3
ATOM      3  C   UNL     1      11.111  12.477  13.603  1.00  0.00     0.230 A 
ATOM      4  C   UNL     1       8.463  15.916  14.603  1.00  0.00     0.109 A 
ATOM      5  C   UNL     1       8.692  15.740  13.239  1.00  0.00     0.045 A 
ATOM      6  N   UNL     1       9.056  14.929  15.340  1.00  0.00    -0.318 N 
ATOM      7  C   UNL     1       9.480  14.621  13.156  1.00  0.00     0.038 A 
ATOM      8  C   UNL     1       9.695  14.166  14.421  1.00  0.00     0.146 A 
ATOM      9  C   UNL     1      10.085  13.999  12.075  1.00  0.00     0.127 A 
ATOM     10  N   UNL     1      10.516  13.111  14.658  1.00  0.00    -0.194 NA
ATOM     11  N   UNL     1      10.891  12.929  12.326  1.00  0.00    -0.221 NA
BRANCH   4  12
ATOM     12  C   UNL     1       7.805  17.111  15.164  1.00  0.00     0.270 C 
ATOM     13  C   UNL     1       5.719  15.814  15.763  1.00  0.00     0.146 C 
ATOM     14  N   UNL     1       6.424  17.088  15.581  1.00  0.00    -0.343 N 
ATOM     15  C   UNL     1       5.758  18.351  15.915  1.00  0.00     0.146 C 
ATOM     16  O   UNL     1       8.475  18.174  15.270  1.00  0.00    -0.267 OA
ENDBRANCH   4  12
BRANCH   6  17
ATOM     17  C   UNL     1       9.082  14.831  16.819  1.00  0.00     0.089 C 
ATOM     18  C   UNL     1      10.483  14.737  17.419  1.00  0.00     0.025 C 
ATOM     19  C   UNL     1       8.387  13.562  17.328  1.00  0.00     0.025 C 
ATOM     20  C   UNL     1      10.281  14.104  18.782  1.00  0.00     0.002 C 
ATOM     21  C   UNL     1       9.094  13.162  18.623  1.00  0.00     0.002 C 
ENDBRANCH   6  17
ENDBRANCH   1   3
BRANCH   1  22
ATOM     22  C   UNL     1      12.189  10.754  15.143  1.00  0.00     0.132 A 
ATOM     23  C   UNL     1      13.261  11.175  15.940  1.00  0.00     0.049 A 
ATOM     24  N   UNL     1      11.357   9.781  15.608  1.00  0.00    -0.237 NA
ATOM     25  C   UNL     1      13.462  10.591  17.192  1.00  0.00     0.031 A 
ATOM     26  C   UNL     1      11.532   9.195  16.822  1.00  0.00     0.139 A 
ATOM     27  C   UNL     1      12.593   9.590  17.650  1.00  0.00     0.055 A 
BRANCH  27  28
ATOM     28  N   UNL     1      12.797   8.979  18.939  1.00  0.00    -0.368 N 
ATOM     29  C   UNL     1      12.133   9.535  20.123  1.00  0.00     0.132 C 
ATOM     30  C   UNL     1      13.337   7.620  19.036  1.00  0.00     0.132 C 
ATOM     31  C   UNL     1      13.013   9.326  21.361  1.00  0.00     0.102 C 
ATOM     32  C   UNL     1      14.169   7.475  20.315  1.00  0.00     0.102 C 
ATOM     33  N   UNL     1      13.414   7.919  21.496  1.00  0.00    -0.313 NA
ATOM     34  H   UNL     1      12.556   7.327  21.595  1.00  0.00     0.122 HD
ENDBRANCH  27  28
ENDBRANCH   1  22
TORSDOF 5
ENDMDL
MODEL 11
REMARK VINA RESULT:    -8.213      1.972      2.607
REMARK INTER + INTRA:         -11.297
REMARK INTER:                 -10.420
REMARK INTRA:                  -0.877
REMARK UNBOUND:                -0.683
REMARK SMILES CN(C)C(=O)c1cc2cnc(Nc3ccc(N4CCNCC4)cn3)nc2n1C1CCCC1
REMARK SMILES IDX 12 1 11 3 6 4 7 5 27 6 8 7 26 8 9 9 25 10 10 11 4 12 1 13
REMARK SMILES IDX 2 14 3 15 5 16 28 17 29 18 32 19 30 20 31 21 13 22 14 23
REMARK SMILES IDX 24 24 15 25 23 26 16 27 17 28 18 29 22 30 19 31 21 32 20 33
REMARK H PARENT 12 2 20 34
REMARK Flexibility Score: inf
ROOT
ATOM      1  N   UNL     1      12.451  12.487  12.045  1.00  0.00    -0.309 N 
ATOM      2  H   UNL     1      12.672  11.472  11.923  1.00  0.00     0.171 HD
ENDROOT
BRANCH   1   3
ATOM      3  C   UNL     1      12.444  12.994  13.390  1.00  0.00     0.230 A 
ATOM      4  C   UNL     1      12.628  12.817  17.835  1.00  0.00     0.109 A 
ATOM      5  C   UNL     1      12.543  14.106  17.312  1.00  0.00     0.045 A 
ATOM      6  N   UNL     1      12.561  11.871  16.850  1.00  0.00    -0.318 N 
ATOM      7  C   UNL     1      12.454  13.928  15.955  1.00  0.00     0.038 A 
ATOM      8  C   UNL     1      12.482  12.590  15.705  1.00  0.00     0.146 A 
ATOM      9  C   UNL     1      12.417  14.837  14.908  1.00  0.00     0.127 A 
ATOM     10  N   UNL     1      12.493  12.113  14.435  1.00  0.00    -0.194 NA
ATOM     11  N   UNL     1      12.409  14.343  13.637  1.00  0.00    -0.221 NA
BRANCH   4  12
ATOM     12  C   UNL     1      12.920  12.539  19.255  1.00  0.00     0.270 C 
ATOM     13  C   UNL     1      15.411  12.442  18.836  1.00  0.00     0.146 C 
ATOM     14  N   UNL     1      14.250  12.206  19.703  1.00  0.00    -0.343 N 
ATOM     15  C   UNL     1      14.442  11.720  21.072  1.00  0.00     0.146 C 
ATOM     16  O   UNL     1      11.973  12.590  20.086  1.00  0.00    -0.267 OA
ENDBRANCH   4  12
BRANCH   6  17
ATOM     17  C   UNL     1      12.687  10.405  17.028  1.00  0.00     0.089 C 
ATOM     18  C   UNL     1      13.968   9.809  16.449  1.00  0.00     0.025 C 
ATOM     19  C   UNL     1      11.574   9.636  16.306  1.00  0.00     0.025 C 
ATOM     20  C   UNL     1      13.651   8.342  16.233  1.00  0.00     0.002 C 
ATOM     21  C   UNL     1      12.168   8.291  15.888  1.00  0.00     0.002 C 
ENDBRANCH   6  17
ENDBRANCH   1   3
BRANCH   1  22
ATOM     22  C   UNL     1      12.176  13.267  10.868  1.00  0.00     0.132 A 
ATOM     23  C   UNL     1      13.229  13.891  10.185  1.00  0.00     0.049 A 
ATOM     24  N   UNL     1      10.905  13.405  10.399  1.00  0.00    -0.237 NA
ATOM     25  C   UNL     1      12.959  14.643   9.041  1.00  0.00     0.031 A 
ATOM     26  C   UNL     1      10.617  14.132   9.288  1.00  0.00     0.139 A 
ATOM     27  C   UNL     1      11.643  14.771   8.575  1.00  0.00     0.055 A 
BRANCH  27  28
ATOM     28  N   UNL     1      11.356  15.549   7.397  1.00  0.00    -0.368 N 
ATOM     29  C   UNL     1      11.727  15.034   6.074  1.00  0.00     0.132 C 
ATOM     30  C   UNL     1      10.385  16.646   7.454  1.00  0.00     0.132 C 
ATOM     31  C   UNL     1      12.082  16.198   5.142  1.00  0.00     0.102 C 
ATOM     32  C   UNL     1      10.783  17.751   6.468  1.00  0.00     0.102 C 
ATOM     33  N   UNL     1      11.015  17.208   5.122  1.00  0.00    -0.313 NA
ATOM     34  H   UNL     1      10.131  16.763   4.776  1.00  0.00     0.122 HD
ENDBRANCH  27  28
ENDBRANCH   1  22
TORSDOF 5
ENDMDL
MODEL 12
REMARK VINA RESULT:    -8.198      3.468      4.267
REMARK INTER + INTRA:         -11.277
REMARK INTER:                 -10.972
REMARK INTRA:                  -0.306
REMARK UNBOUND:                -0.683
REMARK SMILES CN(C)C(=O)c1cc2cnc(Nc3ccc(N4CCNCC4)cn3)nc2n1C1CCCC1
REMARK SMILES IDX 12 1 11 3 6 4 7 5 27 6 8 7 26 8 9 9 25 10 10 11 4 12 1 13
REMARK SMILES IDX 2 14 3 15 5 16 28 17 29 18 32 19 30 20 31 21 13 22 14 23
REMARK SMILES IDX 24 24 15 25 23 26 16 27 17 28 18 29 22 30 19 31 21 32 20 33
REMARK H PARENT 12 2 20 34
REMARK Flexibility Score: inf
ROOT
ATOM      1  N   UNL     1       9.909  14.973  13.585  1.00  0.00    -0.309 N 
ATOM      2  H   UNL     1      10.879  15.357  13.510  1.00  0.00     0.171 HD
ENDROOT
BRANCH   1   3
ATOM      3  C   UNL     1       9.627  14.132  14.716  1.00  0.00     0.230 A 
ATOM      4  C   UNL     1      10.265  10.810  17.611  1.00  0.00     0.109 A 
ATOM      5  C   UNL     1       9.164  11.617  17.892  1.00  0.00     0.045 A 
ATOM      6  N   UNL     1      10.873  11.181  16.444  1.00  0.00    -0.318 N 
ATOM      7  C   UNL     1       9.129  12.531  16.870  1.00  0.00     0.038 A 
ATOM      8  C   UNL     1      10.165  12.259  16.030  1.00  0.00     0.146 A 
ATOM      9  C   UNL     1       8.309  13.625  16.642  1.00  0.00     0.127 A 
ATOM     10  N   UNL     1      10.433  13.056  14.964  1.00  0.00    -0.194 NA
ATOM     11  N   UNL     1       8.577  14.406  15.557  1.00  0.00    -0.221 NA
BRANCH   4  12
ATOM     12  C   UNL     1      10.785   9.798  18.551  1.00  0.00     0.270 C 
ATOM     13  C   UNL     1      12.059  11.531  19.879  1.00  0.00     0.146 C 
ATOM     14  N   UNL     1      11.773  10.130  19.548  1.00  0.00    -0.343 N 
ATOM     15  C   UNL     1      12.420   9.050  20.299  1.00  0.00     0.146 C 
ATOM     16  O   UNL     1      10.354   8.617  18.463  1.00  0.00    -0.267 OA
ENDBRANCH   4  12
BRANCH   6  17
ATOM     17  C   UNL     1      12.107  10.594  15.869  1.00  0.00     0.089 C 
ATOM     18  C   UNL     1      12.120   9.068  15.833  1.00  0.00     0.025 C 
ATOM     19  C   UNL     1      13.352  10.945  16.692  1.00  0.00     0.025 C 
ATOM     20  C   UNL     1      13.587   8.693  15.760  1.00  0.00     0.002 C 
ATOM     21  C   UNL     1      14.323   9.775  16.540  1.00  0.00     0.002 C 
ENDBRANCH   6  17
ENDBRANCH   1   3
BRANCH   1  22
ATOM     22  C   UNL     1       8.963  15.318  12.557  1.00  0.00     0.132 A 
ATOM     23  C   UNL     1       9.053  14.712  11.297  1.00  0.00     0.049 A 
ATOM     24  N   UNL     1       7.971  16.222  12.791  1.00  0.00    -0.237 NA
ATOM     25  C   UNL     1       8.132  15.045  10.304  1.00  0.00     0.031 A 
ATOM     26  C   UNL     1       7.062  16.563  11.841  1.00  0.00     0.139 A 
ATOM     27  C   UNL     1       7.118  15.978  10.567  1.00  0.00     0.055 A 
BRANCH  27  28
ATOM     28  N   UNL     1       6.165  16.331   9.545  1.00  0.00    -0.368 N 
ATOM     29  C   UNL     1       4.883  16.937   9.921  1.00  0.00     0.132 C 
ATOM     30  C   UNL     1       6.588  16.443   8.146  1.00  0.00     0.132 C 
ATOM     31  C   UNL     1       3.794  16.514   8.929  1.00  0.00     0.102 C 
ATOM     32  C   UNL     1       5.437  16.043   7.216  1.00  0.00     0.102 C 
ATOM     33  N   UNL     1       4.205  16.776   7.544  1.00  0.00    -0.313 NA
ATOM     34  H   UNL     1       4.379  17.803   7.428  1.00  0.00     0.122 HD
ENDBRANCH  27  28
ENDBRANCH   1  22
TORSDOF 5
ENDMDL
MODEL 13
REMARK VINA RESULT:    -8.144      5.177      8.722
REMARK INTER + INTRA:         -11.208
REMARK INTER:                 -10.298
REMARK INTRA:                  -0.910
REMARK UNBOUND:                -0.683
REMARK SMILES CN(C)C(=O)c1cc2cnc(Nc3ccc(N4CCNCC4)cn3)nc2n1C1CCCC1
REMARK SMILES IDX 12 1 11 3 6 4 7 5 27 6 8 7 26 8 9 9 25 10 10 11 4 12 1 13
REMARK SMILES IDX 2 14 3 15 5 16 28 17 29 18 32 19 30 20 31 21 13 22 14 23
REMARK SMILES IDX 24 24 15 25 23 26 16 27 17 28 18 29 22 30 19 31 21 32 20 33
REMARK H PARENT 12 2 20 34
REMARK Flexibility Score: inf
ROOT
ATOM      1  N   UNL     1       8.420  15.531  17.012  1.00  0.00    -0.309 N 
ATOM      2  H   UNL     1       9.194  16.210  16.829  1.00  0.00     0.171 HD
ENDROOT
BRANCH   1   3
ATOM      3  C   UNL     1       8.790  14.155  17.195  1.00  0.00     0.230 A 
ATOM      4  C   UNL     1      11.018  10.376  16.434  1.00  0.00     0.109 A 
ATOM      5  C   UNL     1      10.129  10.316  17.506  1.00  0.00     0.045 A 
ATOM      6  N   UNL     1      10.953  11.584  15.797  1.00  0.00    -0.318 N 
ATOM      7  C   UNL     1       9.529  11.549  17.533  1.00  0.00     0.038 A 
ATOM      8  C   UNL     1      10.048  12.290  16.515  1.00  0.00     0.146 A 
ATOM      9  C   UNL     1       8.614  12.108  18.412  1.00  0.00     0.127 A 
ATOM     10  N   UNL     1       9.701  13.591  16.346  1.00  0.00    -0.194 NA
ATOM     11  N   UNL     1       8.259  13.410  18.218  1.00  0.00    -0.221 NA
BRANCH   4  12
ATOM     12  C   UNL     1      12.009   9.321  16.147  1.00  0.00     0.270 C 
ATOM     13  C   UNL     1      13.658  10.267  17.813  1.00  0.00     0.146 C 
ATOM     14  N   UNL     1      13.340   9.363  16.702  1.00  0.00    -0.343 N 
ATOM     15  C   UNL     1      14.350   8.422  16.207  1.00  0.00     0.146 C 
ATOM     16  O   UNL     1      11.674   8.369  15.391  1.00  0.00    -0.267 OA
ENDBRANCH   4  12
BRANCH   6  17
ATOM     17  C   UNL     1      11.799  12.027  14.663  1.00  0.00     0.089 C 
ATOM     18  C   UNL     1      12.695  13.223  14.976  1.00  0.00     0.025 C 
ATOM     19  C   UNL     1      10.963  12.506  13.470  1.00  0.00     0.025 C 
ATOM     20  C   UNL     1      13.015  13.833  13.625  1.00  0.00     0.002 C 
ATOM     21  C   UNL     1      11.783  13.586  12.764  1.00  0.00     0.002 C 
ENDBRANCH   6  17
ENDBRANCH   1   3
BRANCH   1  22
ATOM     22  C   UNL     1       7.073  16.037  17.058  1.00  0.00     0.132 A 
ATOM     23  C   UNL     1       6.192  15.767  16.003  1.00  0.00     0.049 A 
ATOM     24  N   UNL     1       6.636  16.770  18.118  1.00  0.00    -0.237 NA
ATOM     25  C   UNL     1       4.886  16.254  16.052  1.00  0.00     0.031 A 
ATOM     26  C   UNL     1       5.369  17.257  18.190  1.00  0.00     0.139 A 
ATOM     27  C   UNL     1       4.456  17.007  17.154  1.00  0.00     0.055 A 
BRANCH  27  28
ATOM     28  N   UNL     1       3.110  17.518  17.212  1.00  0.00    -0.368 N 
ATOM     29  C   UNL     1       2.158  17.188  16.144  1.00  0.00     0.132 C 
ATOM     30  C   UNL     1       2.568  18.036  18.471  1.00  0.00     0.132 C 
ATOM     31  C   UNL     1       1.176  18.348  15.943  1.00  0.00     0.102 C 
ATOM     32  C   UNL     1       1.567  19.162  18.189  1.00  0.00     0.102 C 
ATOM     33  N   UNL     1       0.551  18.741  17.213  1.00  0.00    -0.313 NA
ATOM     34  H   UNL     1       0.023  17.923  17.601  1.00  0.00     0.122 HD
ENDBRANCH  27  28
ENDBRANCH   1  22
TORSDOF 5
ENDMDL
MODEL 14
REMARK VINA RESULT:    -8.081      3.550      9.403
REMARK INTER + INTRA:         -11.126
REMARK INTER:                 -10.201
REMARK INTRA:                  -0.925
REMARK UNBOUND:                -0.683
REMARK SMILES CN(C)C(=O)c1cc2cnc(Nc3ccc(N4CCNCC4)cn3)nc2n1C1CCCC1
REMARK SMILES IDX 12 1 11 3 6 4 7 5 27 6 8 7 26 8 9 9 25 10 10 11 4 12 1 13
REMARK SMILES IDX 2 14 3 15 5 16 28 17 29 18 32 19 30 20 31 21 13 22 14 23
REMARK SMILES IDX 24 24 15 25 23 26 16 27 17 28 18 29 22 30 19 31 21 32 20 33
REMARK H PARENT 12 2 20 34
REMARK Flexibility Score: inf
ROOT
ATOM      1  N   UNL     1      12.424  12.446  13.149  1.00  0.00    -0.309 N 
ATOM      2  H   UNL     1      13.390  12.339  12.762  1.00  0.00     0.171 HD
ENDROOT
BRANCH   1   3
ATOM      3  C   UNL     1      11.449  13.076  12.302  1.00  0.00     0.230 A 
ATOM      4  C   UNL     1       7.951  15.635  11.282  1.00  0.00     0.109 A 
ATOM      5  C   UNL     1       8.597  15.076  10.181  1.00  0.00     0.045 A 
ATOM      6  N   UNL     1       8.502  15.206  12.458  1.00  0.00    -0.318 N 
ATOM      7  C   UNL     1       9.597  14.304  10.717  1.00  0.00     0.038 A 
ATOM      8  C   UNL     1       9.529  14.411  12.072  1.00  0.00     0.146 A 
ATOM      9  C   UNL     1      10.609  13.567  10.121  1.00  0.00     0.127 A 
ATOM     10  N   UNL     1      10.452  13.818  12.871  1.00  0.00    -0.194 NA
ATOM     11  N   UNL     1      11.518  12.960  10.936  1.00  0.00    -0.221 NA
BRANCH   4  12
ATOM     12  C   UNL     1       6.916  16.681  11.166  1.00  0.00     0.270 C 
ATOM     13  C   UNL     1       8.629  18.537  11.266  1.00  0.00     0.146 C 
ATOM     14  N   UNL     1       7.236  18.080  11.314  1.00  0.00    -0.343 N 
ATOM     15  C   UNL     1       6.145  19.054  11.417  1.00  0.00     0.146 C 
ATOM     16  O   UNL     1       5.727  16.330  10.939  1.00  0.00    -0.267 OA
ENDBRANCH   4  12
BRANCH   6  17
ATOM     17  C   UNL     1       8.118  15.643  13.821  1.00  0.00     0.089 C 
ATOM     18  C   UNL     1       9.299  15.918  14.749  1.00  0.00     0.025 C 
ATOM     19  C   UNL     1       7.314  14.572  14.569  1.00  0.00     0.025 C 
ATOM     20  C   UNL     1       8.729  15.794  16.149  1.00  0.00     0.002 C 
ATOM     21  C   UNL     1       7.637  14.736  16.053  1.00  0.00     0.002 C 
ENDBRANCH   6  17
ENDBRANCH   1   3
BRANCH   1  22
ATOM     22  C   UNL     1      12.169  11.959  14.479  1.00  0.00     0.132 A 
ATOM     23  C   UNL     1      11.629  10.679  14.661  1.00  0.00     0.049 A 
ATOM     24  N   UNL     1      12.453  12.722  15.571  1.00  0.00    -0.237 NA
ATOM     25  C   UNL     1      11.388  10.209  15.952  1.00  0.00     0.031 A 
ATOM     26  C   UNL     1      12.226  12.287  16.839  1.00  0.00     0.139 A 
ATOM     27  C   UNL     1      11.688  11.011  17.062  1.00  0.00     0.055 A 
BRANCH  27  28
ATOM     28  N   UNL     1      11.438  10.534  18.399  1.00  0.00    -0.368 N 
ATOM     29  C   UNL     1      10.132   9.956  18.735  1.00  0.00     0.132 C 
ATOM     30  C   UNL     1      12.555  10.272  19.311  1.00  0.00     0.132 C 
ATOM     31  C   UNL     1       9.792  10.251  20.200  1.00  0.00     0.102 C 
ATOM     32  C   UNL     1      12.127  10.550  20.757  1.00  0.00     0.102 C 
ATOM     33  N   UNL     1      10.883   9.841  21.092  1.00  0.00    -0.313 NA
ATOM     34  H   UNL     1      11.040   8.810  20.990  1.00  0.00     0.122 HD
ENDBRANCH  27  28
ENDBRANCH   1  22
TORSDOF 5
ENDMDL
MODEL 15
REMARK VINA RESULT:    -8.052      2.766      4.746
REMARK INTER + INTRA:         -11.089
REMARK INTER:                 -10.326
REMARK INTRA:                  -0.764
REMARK UNBOUND:                -0.683
REMARK SMILES CN(C)C(=O)c1cc2cnc(Nc3ccc(N4CCNCC4)cn3)nc2n1C1CCCC1
REMARK SMILES IDX 12 1 11 3 6 4 7 5 27 6 8 7 26 8 9 9 25 10 10 11 4 12 1 13
REMARK SMILES IDX 2 14 3 15 5 16 28 17 29 18 32 19 30 20 31 21 13 22 14 23
REMARK SMILES IDX 24 24 15 25 23 26 16 27 17 28 18 29 22 30 19 31 21 32 20 33
REMARK H PARENT 12 2 20 34
REMARK Flexibility Score: inf
ROOT
ATOM      1  N   UNL     1      11.811  13.903  16.065  1.00  0.00    -0.309 N 
ATOM      2  H   UNL     1      11.107  14.481  16.580  1.00  0.00     0.171 HD
ENDROOT
BRANCH   1   3
ATOM      3  C   UNL     1      12.631  13.023  16.852  1.00  0.00     0.230 A 
ATOM      4  C   UNL     1      13.574   9.533  19.451  1.00  0.00     0.109 A 
ATOM      5  C   UNL     1      14.682  10.294  19.083  1.00  0.00     0.045 A 
ATOM      6  N   UNL     1      12.412  10.081  18.983  1.00  0.00    -0.318 N 
ATOM      7  C   UNL     1      14.167  11.323  18.336  1.00  0.00     0.038 A 
ATOM      8  C   UNL     1      12.816  11.165  18.279  1.00  0.00     0.146 A 
ATOM      9  C   UNL     1      14.783  12.354  17.642  1.00  0.00     0.127 A 
ATOM     10  N   UNL     1      12.043  11.993  17.532  1.00  0.00    -0.194 NA
ATOM     11  N   UNL     1      13.992  13.191  16.912  1.00  0.00    -0.221 NA
BRANCH   4  12
ATOM     12  C   UNL     1      13.681   8.221  20.118  1.00  0.00     0.270 C 
ATOM     13  C   UNL     1      13.269   9.227  22.401  1.00  0.00     0.146 C 
ATOM     14  N   UNL     1      13.687   8.102  21.556  1.00  0.00    -0.343 N 
ATOM     15  C   UNL     1      14.023   6.811  22.164  1.00  0.00     0.146 C 
ATOM     16  O   UNL     1      13.776   7.188  19.403  1.00  0.00    -0.267 OA
ENDBRANCH   4  12
BRANCH   6  17
ATOM     17  C   UNL     1      11.051   9.510  19.123  1.00  0.00     0.089 C 
ATOM     18  C   UNL     1      10.217   9.551  17.844  1.00  0.00     0.025 C 
ATOM     19  C   UNL     1      10.198  10.286  20.133  1.00  0.00     0.025 C 
ATOM     20  C   UNL     1       8.778   9.466  18.315  1.00  0.00     0.002 C 
ATOM     21  C   UNL     1       8.748  10.174  19.664  1.00  0.00     0.002 C 
ENDBRANCH   6  17
ENDBRANCH   1   3
BRANCH   1  22
ATOM     22  C   UNL     1      11.889  14.045  14.636  1.00  0.00     0.132 A 
ATOM     23  C   UNL     1      12.595  13.100  13.880  1.00  0.00     0.049 A 
ATOM     24  N   UNL     1      11.279  15.084  14.000  1.00  0.00    -0.237 NA
ATOM     25  C   UNL     1      12.666  13.238  12.493  1.00  0.00     0.031 A 
ATOM     26  C   UNL     1      11.334  15.241  12.651  1.00  0.00     0.139 A 
ATOM     27  C   UNL     1      12.029  14.315  11.859  1.00  0.00     0.055 A 
BRANCH  27  28
ATOM     28  N   UNL     1      12.101  14.468  10.428  1.00  0.00    -0.368 N 
ATOM     29  C   UNL     1      13.380  14.274   9.736  1.00  0.00     0.132 C 
ATOM     30  C   UNL     1      10.878  14.442   9.620  1.00  0.00     0.132 C 
ATOM     31  C   UNL     1      13.453  15.189   8.508  1.00  0.00     0.102 C 
ATOM     32  C   UNL     1      11.041  15.345   8.392  1.00  0.00     0.102 C 
ATOM     33  N   UNL     1      12.271  15.025   7.652  1.00  0.00    -0.313 NA
ATOM     34  H   UNL     1      12.222  14.031   7.324  1.00  0.00     0.122 HD
ENDBRANCH  27  28
ENDBRANCH   1  22
TORSDOF 5
ENDMDL
