MODEL 1
REMARK VINA RESULT:   -10.890      0.000      0.000
REMARK INTER + INTRA:         -19.103
REMARK INTER:                 -18.529
REMARK INTRA:                  -0.575
REMARK UNBOUND:                -0.575
REMARK SMILES COc1cc2c(Oc3ccc(NC(=O)C4(C(=O)Nc5ccc(F)cc5)CC4)cc3F)ccnc2cc1OCCCN1CCOCC1
REMARK SMILES IDX 3 1 36 2 35 3 34 4 33 5 32 6 31 7 6 8 5 9 4 10 2 11 1 12
REMARK SMILES IDX 37 13 38 14 39 15 40 16 41 17 42 18 46 19 43 20 45 21 44 22
REMARK SMILES IDX 7 23 8 24 9 25 29 26 10 27 28 28 30 29 11 30 12 31 13 32
REMARK SMILES IDX 14 34 15 35 26 36 27 37 16 38 17 39 18 40 19 42 20 43 25 44
REMARK SMILES IDX 21 45 24 46 22 47 23 48
REMARK H PARENT 12 33 18 41
REMARK Flexibility Score: inf
ROOT
ATOM      1  C   UNL     1      17.759  33.020  12.507  1.00  0.00     0.161 A 
ATOM      2  C   UNL     1      16.555  33.009  11.786  1.00  0.00     0.163 A 
ATOM      3  C   UNL     1      15.363  33.421  12.413  1.00  0.00     0.079 A 
ATOM      4  C   UNL     1      15.371  33.840  13.745  1.00  0.00     0.078 A 
ATOM      5  N   UNL     1      14.212  34.239  14.334  1.00  0.00    -0.256 NA
ATOM      6  C   UNL     1      14.171  34.648  15.628  1.00  0.00     0.115 A 
ATOM      7  C   UNL     1      15.336  34.666  16.396  1.00  0.00     0.068 A 
ATOM      8  C   UNL     1      16.557  34.267  15.825  1.00  0.00     0.138 A 
ATOM      9  C   UNL     1      16.578  33.846  14.480  1.00  0.00     0.047 A 
ATOM     10  C   UNL     1      17.767  33.437  13.853  1.00  0.00     0.064 A 
ENDROOT
BRANCH   1  11
ATOM     11  O   UNL     1      18.927  32.603  11.849  1.00  0.00    -0.493 OA
ATOM     12  C   UNL     1      20.044  31.995  12.490  1.00  0.00     0.278 C 
ENDBRANCH   1  11
BRANCH   2  13
ATOM     13  O   UNL     1      16.583  32.581  10.450  1.00  0.00    -0.490 OA
BRANCH  13  14
ATOM     14  C   UNL     1      16.590  33.451   9.320  1.00  0.00     0.231 C 
BRANCH  14  15
ATOM     15  C   UNL     1      16.626  32.628   8.030  1.00  0.00     0.057 C 
BRANCH  15  16
ATOM     16  C   UNL     1      15.421  31.681   7.896  1.00  0.00     0.088 C 
BRANCH  16  17
ATOM     17  N   UNL     1      15.813  30.256   7.981  1.00  0.00    -0.299 NA
ATOM     18  C   UNL     1      16.946  29.943   7.076  1.00  0.00     0.113 C 
ATOM     19  C   UNL     1      14.652  29.360   7.763  1.00  0.00     0.113 C 
ATOM     20  C   UNL     1      16.918  28.472   6.629  1.00  0.00     0.175 C 
ATOM     21  C   UNL     1      14.591  28.849   6.311  1.00  0.00     0.175 C 
ATOM     22  O   UNL     1      15.747  28.133   5.897  1.00  0.00    -0.379 OA
ENDBRANCH  16  17
ENDBRANCH  15  16
ENDBRANCH  14  15
ENDBRANCH  13  14
ENDBRANCH   2  13
BRANCH   8  23
ATOM     23  O   UNL     1      17.743  34.229  16.581  1.00  0.00    -0.454 OA
BRANCH  23  24
ATOM     24  C   UNL     1      19.025  34.482  16.079  1.00  0.00     0.163 A 
ATOM     25  C   UNL     1      19.953  33.437  16.042  1.00  0.00     0.052 A 
ATOM     26  C   UNL     1      19.383  35.743  15.572  1.00  0.00     0.167 A 
ATOM     27  C   UNL     1      21.244  33.654  15.554  1.00  0.00     0.030 A 
ATOM     28  C   UNL     1      20.673  35.957  15.073  1.00  0.00     0.069 A 
ATOM     29  F   UNL     1      18.473  36.748  15.518  1.00  0.00    -0.203 F 
ATOM     30  C   UNL     1      21.626  34.920  15.087  1.00  0.00     0.044 A 
BRANCH  30  31
ATOM     31  N   UNL     1      22.961  35.104  14.579  1.00  0.00    -0.325 N 
ATOM     32  C   UNL     1      23.326  35.049  13.191  1.00  0.00     0.240 C 
ATOM     33  H   UNL     1      23.700  35.406  15.254  1.00  0.00     0.169 HD
ATOM     34  O   UNL     1      22.453  34.887  12.296  1.00  0.00    -0.273 OA
BRANCH  32  35
ATOM     35  C   UNL     1      24.767  35.201  12.801  1.00  0.00     0.128 C 
ATOM     36  C   UNL     1      25.093  36.231  11.726  1.00  0.00     0.028 C 
ATOM     37  C   UNL     1      25.415  36.527  13.185  1.00  0.00     0.028 C 
BRANCH  35  38
ATOM     38  C   UNL     1      25.656  33.996  12.853  1.00  0.00     0.240 C 
ATOM     39  O   UNL     1      25.680  33.285  13.894  1.00  0.00    -0.274 OA
ATOM     40  N   UNL     1      26.416  33.620  11.696  1.00  0.00    -0.325 N 
ATOM     41  H   UNL     1      26.127  34.014  10.772  1.00  0.00     0.169 HD
BRANCH  40  42
ATOM     42  C   UNL     1      27.484  32.659  11.724  1.00  0.00     0.041 A 
ATOM     43  C   UNL     1      28.709  32.946  12.357  1.00  0.00     0.029 A 
ATOM     44  C   UNL     1      27.325  31.430  11.064  1.00  0.00     0.029 A 
ATOM     45  C   UNL     1      29.743  32.003  12.350  1.00  0.00     0.041 A 
ATOM     46  C   UNL     1      28.360  30.489  11.060  1.00  0.00     0.041 A 
ATOM     47  C   UNL     1      29.567  30.774  11.708  1.00  0.00     0.123 A 
ATOM     48  F   UNL     1      30.570  29.862  11.704  1.00  0.00    -0.207 F 
ENDBRANCH  40  42
ENDBRANCH  35  38
ENDBRANCH  32  35
ENDBRANCH  30  31
ENDBRANCH  23  24
ENDBRANCH   8  23
TORSDOF 12
ENDMDL
MODEL 2
REMARK VINA RESULT:   -10.634      5.465      9.934
REMARK INTER + INTRA:         -18.669
REMARK INTER:                 -17.871
REMARK INTRA:                  -0.798
REMARK UNBOUND:                -0.575
REMARK SMILES COc1cc2c(Oc3ccc(NC(=O)C4(C(=O)Nc5ccc(F)cc5)CC4)cc3F)ccnc2cc1OCCCN1CCOCC1
REMARK SMILES IDX 3 1 36 2 35 3 34 4 33 5 32 6 31 7 6 8 5 9 4 10 2 11 1 12
REMARK SMILES IDX 37 13 38 14 39 15 40 16 41 17 42 18 46 19 43 20 45 21 44 22
REMARK SMILES IDX 7 23 8 24 9 25 29 26 10 27 28 28 30 29 11 30 12 31 13 32
REMARK SMILES IDX 14 34 15 35 26 36 27 37 16 38 17 39 18 40 19 42 20 43 25 44
REMARK SMILES IDX 21 45 24 46 22 47 23 48
REMARK H PARENT 12 33 18 41
REMARK Flexibility Score: inf
ROOT
ATOM      1  C   UNL     1      18.570  33.677  12.409  1.00  0.00     0.161 A 
ATOM      2  C   UNL     1      17.599  33.592  11.400  1.00  0.00     0.163 A 
ATOM      3  C   UNL     1      16.234  33.661  11.737  1.00  0.00     0.079 A 
ATOM      4  C   UNL     1      15.840  33.814  13.067  1.00  0.00     0.078 A 
ATOM      5  N   UNL     1      14.517  33.883  13.377  1.00  0.00    -0.256 NA
ATOM      6  C   UNL     1      14.088  34.025  14.657  1.00  0.00     0.115 A 
ATOM      7  C   UNL     1      15.009  34.103  15.702  1.00  0.00     0.068 A 
ATOM      8  C   UNL     1      16.387  34.041  15.427  1.00  0.00     0.138 A 
ATOM      9  C   UNL     1      16.811  33.893  14.091  1.00  0.00     0.047 A 
ATOM     10  C   UNL     1      18.173  33.826  13.753  1.00  0.00     0.064 A 
ENDROOT
BRANCH   1  11
ATOM     11  O   UNL     1      19.922  33.606  12.035  1.00  0.00    -0.493 OA
ATOM     12  C   UNL     1      21.014  33.966  12.874  1.00  0.00     0.278 C 
ENDBRANCH   1  11
BRANCH   2  13
ATOM     13  O   UNL     1      18.031  33.437  10.073  1.00  0.00    -0.490 OA
BRANCH  13  14
ATOM     14  C   UNL     1      17.748  32.304   9.255  1.00  0.00     0.231 C 
BRANCH  14  15
ATOM     15  C   UNL     1      17.006  32.747   7.991  1.00  0.00     0.057 C 
BRANCH  15  16
ATOM     16  C   UNL     1      15.764  31.887   7.700  1.00  0.00     0.088 C 
BRANCH  16  17
ATOM     17  N   UNL     1      16.033  30.440   7.853  1.00  0.00    -0.299 NA
ATOM     18  C   UNL     1      17.095  29.977   6.926  1.00  0.00     0.113 C 
ATOM     19  C   UNL     1      14.790  29.641   7.731  1.00  0.00     0.113 C 
ATOM     20  C   UNL     1      16.919  28.492   6.566  1.00  0.00     0.175 C 
ATOM     21  C   UNL     1      14.622  29.058   6.314  1.00  0.00     0.175 C 
ATOM     22  O   UNL     1      15.693  28.220   5.899  1.00  0.00    -0.379 OA
ENDBRANCH  16  17
ENDBRANCH  15  16
ENDBRANCH  14  15
ENDBRANCH  13  14
ENDBRANCH   2  13
BRANCH   8  23
ATOM     23  O   UNL     1      17.343  34.070  16.459  1.00  0.00    -0.454 OA
BRANCH  23  24
ATOM     24  C   UNL     1      17.622  35.181  17.265  1.00  0.00     0.163 A 
ATOM     25  C   UNL     1      16.653  35.613  18.175  1.00  0.00     0.052 A 
ATOM     26  C   UNL     1      18.863  35.837  17.212  1.00  0.00     0.167 A 
ATOM     27  C   UNL     1      16.893  36.722  18.990  1.00  0.00     0.030 A 
ATOM     28  C   UNL     1      19.107  36.941  18.036  1.00  0.00     0.069 A 
ATOM     29  F   UNL     1      19.849  35.382  16.399  1.00  0.00    -0.203 F 
ATOM     30  C   UNL     1      18.112  37.413  18.913  1.00  0.00     0.044 A 
BRANCH  30  31
ATOM     31  N   UNL     1      18.330  38.543  19.778  1.00  0.00    -0.325 N 
ATOM     32  C   UNL     1      18.797  38.461  21.133  1.00  0.00     0.240 C 
ATOM     33  H   UNL     1      18.247  39.497  19.360  1.00  0.00     0.169 HD
ATOM     34  O   UNL     1      19.112  37.354  21.646  1.00  0.00    -0.273 OA
BRANCH  32  35
ATOM     35  C   UNL     1      18.927  39.717  21.946  1.00  0.00     0.128 C 
ATOM     36  C   UNL     1      19.218  39.557  23.434  1.00  0.00     0.028 C 
ATOM     37  C   UNL     1      20.323  40.008  22.487  1.00  0.00     0.028 C 
BRANCH  35  38
ATOM     38  C   UNL     1      18.111  40.912  21.556  1.00  0.00     0.240 C 
ATOM     39  O   UNL     1      18.691  41.962  21.169  1.00  0.00    -0.274 OA
ATOM     40  N   UNL     1      16.679  40.828  21.556  1.00  0.00    -0.325 N 
ATOM     41  H   UNL     1      16.244  39.877  21.552  1.00  0.00     0.169 HD
BRANCH  40  42
ATOM     42  C   UNL     1      15.816  41.973  21.462  1.00  0.00     0.041 A 
ATOM     43  C   UNL     1      15.301  42.597  22.615  1.00  0.00     0.029 A 
ATOM     44  C   UNL     1      15.435  42.448  20.197  1.00  0.00     0.029 A 
ATOM     45  C   UNL     1      14.443  43.696  22.498  1.00  0.00     0.041 A 
ATOM     46  C   UNL     1      14.577  43.548  20.084  1.00  0.00     0.041 A 
ATOM     47  C   UNL     1      14.087  44.175  21.234  1.00  0.00     0.123 A 
ATOM     48  F   UNL     1      13.256  45.241  21.123  1.00  0.00    -0.207 F 
ENDBRANCH  40  42
ENDBRANCH  35  38
ENDBRANCH  32  35
ENDBRANCH  30  31
ENDBRANCH  23  24
ENDBRANCH   8  23
TORSDOF 12
ENDMDL
MODEL 3
REMARK VINA RESULT:   -10.304      5.339     10.070
REMARK INTER + INTRA:         -18.107
REMARK INTER:                 -16.812
REMARK INTRA:                  -1.295
REMARK UNBOUND:                -0.575
REMARK SMILES COc1cc2c(Oc3ccc(NC(=O)C4(C(=O)Nc5ccc(F)cc5)CC4)cc3F)ccnc2cc1OCCCN1CCOCC1
REMARK SMILES IDX 3 1 36 2 35 3 34 4 33 5 32 6 31 7 6 8 5 9 4 10 2 11 1 12
REMARK SMILES IDX 37 13 38 14 39 15 40 16 41 17 42 18 46 19 43 20 45 21 44 22
REMARK SMILES IDX 7 23 8 24 9 25 29 26 10 27 28 28 30 29 11 30 12 31 13 32
REMARK SMILES IDX 14 34 15 35 26 36 27 37 16 38 17 39 18 40 19 42 20 43 25 44
REMARK SMILES IDX 21 45 24 46 22 47 23 48
REMARK H PARENT 12 33 18 41
REMARK Flexibility Score: inf
ROOT
ATOM      1  C   UNL     1      16.690  33.230  12.610  1.00  0.00     0.161 A 
ATOM      2  C   UNL     1      17.210  33.360  11.313  1.00  0.00     0.163 A 
ATOM      3  C   UNL     1      18.590  33.572  11.131  1.00  0.00     0.079 A 
ATOM      4  C   UNL     1      19.445  33.652  12.232  1.00  0.00     0.078 A 
ATOM      5  N   UNL     1      20.776  33.853  12.041  1.00  0.00    -0.256 NA
ATOM      6  C   UNL     1      21.643  33.944  13.081  1.00  0.00     0.115 A 
ATOM      7  C   UNL     1      21.180  33.835  14.393  1.00  0.00     0.068 A 
ATOM      8  C   UNL     1      19.812  33.622  14.637  1.00  0.00     0.138 A 
ATOM      9  C   UNL     1      18.929  33.530  13.543  1.00  0.00     0.047 A 
ATOM     10  C   UNL     1      17.552  33.317  13.722  1.00  0.00     0.064 A 
ENDROOT
BRANCH   1  11
ATOM     11  O   UNL     1      15.310  33.019  12.752  1.00  0.00    -0.493 OA
ATOM     12  C   UNL     1      14.446  33.820  13.552  1.00  0.00     0.278 C 
ENDBRANCH   1  11
BRANCH   2  13
ATOM     13  O   UNL     1      16.322  33.275  10.229  1.00  0.00    -0.490 OA
BRANCH  13  14
ATOM     14  C   UNL     1      16.559  33.836   8.940  1.00  0.00     0.231 C 
BRANCH  14  15
ATOM     15  C   UNL     1      16.807  32.719   7.923  1.00  0.00     0.057 C 
BRANCH  15  16
ATOM     16  C   UNL     1      15.581  31.810   7.730  1.00  0.00     0.088 C 
BRANCH  16  17
ATOM     17  N   UNL     1      15.914  30.376   7.885  1.00  0.00    -0.299 NA
ATOM     18  C   UNL     1      17.025  29.970   6.991  1.00  0.00     0.113 C 
ATOM     19  C   UNL     1      14.714  29.520   7.720  1.00  0.00     0.113 C 
ATOM     20  C   UNL     1      16.932  28.480   6.619  1.00  0.00     0.175 C 
ATOM     21  C   UNL     1      14.620  28.939   6.296  1.00  0.00     0.175 C 
ATOM     22  O   UNL     1      15.742  28.154   5.912  1.00  0.00    -0.379 OA
ENDBRANCH  16  17
ENDBRANCH  15  16
ENDBRANCH  14  15
ENDBRANCH  13  14
ENDBRANCH   2  13
BRANCH   8  23
ATOM     23  O   UNL     1      19.303  33.552  15.947  1.00  0.00    -0.454 OA
BRANCH  23  24
ATOM     24  C   UNL     1      19.117  34.650  16.796  1.00  0.00     0.163 A 
ATOM     25  C   UNL     1      20.234  35.388  17.197  1.00  0.00     0.052 A 
ATOM     26  C   UNL     1      17.837  35.051  17.214  1.00  0.00     0.167 A 
ATOM     27  C   UNL     1      20.090  36.485  18.050  1.00  0.00     0.030 A 
ATOM     28  C   UNL     1      17.691  36.156  18.060  1.00  0.00     0.069 A 
ATOM     29  F   UNL     1      16.732  34.403  16.769  1.00  0.00    -0.203 F 
ATOM     30  C   UNL     1      18.820  36.866  18.510  1.00  0.00     0.044 A 
BRANCH  30  31
ATOM     31  N   UNL     1      18.707  38.011  19.377  1.00  0.00    -0.325 N 
ATOM     32  C   UNL     1      18.838  37.974  20.806  1.00  0.00     0.240 C 
ATOM     33  H   UNL     1      18.631  38.953  18.930  1.00  0.00     0.169 HD
ATOM     34  O   UNL     1      19.129  36.904  21.404  1.00  0.00    -0.273 OA
BRANCH  32  35
ATOM     35  C   UNL     1      18.639  39.234  21.597  1.00  0.00     0.128 C 
ATOM     36  C   UNL     1      19.275  39.296  22.981  1.00  0.00     0.028 C 
ATOM     37  C   UNL     1      19.893  40.072  21.825  1.00  0.00     0.028 C 
BRANCH  35  38
ATOM     38  C   UNL     1      17.361  39.998  21.423  1.00  0.00     0.240 C 
ATOM     39  O   UNL     1      16.400  39.468  20.803  1.00  0.00    -0.274 OA
ATOM     40  N   UNL     1      17.216  41.292  22.024  1.00  0.00    -0.325 N 
ATOM     41  H   UNL     1      17.877  41.552  22.791  1.00  0.00     0.169 HD
BRANCH  40  42
ATOM     42  C   UNL     1      16.156  42.205  21.699  1.00  0.00     0.041 A 
ATOM     43  C   UNL     1      15.992  42.700  20.390  1.00  0.00     0.029 A 
ATOM     44  C   UNL     1      15.297  42.655  22.714  1.00  0.00     0.029 A 
ATOM     45  C   UNL     1      14.967  43.607  20.103  1.00  0.00     0.041 A 
ATOM     46  C   UNL     1      14.271  43.562  22.422  1.00  0.00     0.041 A 
ATOM     47  C   UNL     1      14.104  44.033  21.116  1.00  0.00     0.123 A 
ATOM     48  F   UNL     1      13.110  44.911  20.834  1.00  0.00    -0.207 F 
ENDBRANCH  40  42
ENDBRANCH  35  38
ENDBRANCH  32  35
ENDBRANCH  30  31
ENDBRANCH  23  24
ENDBRANCH   8  23
TORSDOF 12
ENDMDL
MODEL 4
REMARK VINA RESULT:   -10.038      4.506     12.697
REMARK INTER + INTRA:         -17.654
REMARK INTER:                 -15.969
REMARK INTRA:                  -1.685
REMARK UNBOUND:                -0.575
REMARK SMILES COc1cc2c(Oc3ccc(NC(=O)C4(C(=O)Nc5ccc(F)cc5)CC4)cc3F)ccnc2cc1OCCCN1CCOCC1
REMARK SMILES IDX 3 1 36 2 35 3 34 4 33 5 32 6 31 7 6 8 5 9 4 10 2 11 1 12
REMARK SMILES IDX 37 13 38 14 39 15 40 16 41 17 42 18 46 19 43 20 45 21 44 22
REMARK SMILES IDX 7 23 8 24 9 25 29 26 10 27 28 28 30 29 11 30 12 31 13 32
REMARK SMILES IDX 14 34 15 35 26 36 27 37 16 38 17 39 18 40 19 42 20 43 25 44
REMARK SMILES IDX 21 45 24 46 22 47 23 48
REMARK H PARENT 12 33 18 41
REMARK Flexibility Score: inf
ROOT
ATOM      1  C   UNL     1      28.633  32.740  15.543  1.00  0.00     0.161 A 
ATOM      2  C   UNL     1      29.523  31.873  14.891  1.00  0.00     0.163 A 
ATOM      3  C   UNL     1      29.201  31.372  13.616  1.00  0.00     0.079 A 
ATOM      4  C   UNL     1      28.003  31.733  12.994  1.00  0.00     0.078 A 
ATOM      5  N   UNL     1      27.708  31.244  11.760  1.00  0.00    -0.256 NA
ATOM      6  C   UNL     1      26.553  31.563  11.122  1.00  0.00     0.115 A 
ATOM      7  C   UNL     1      25.627  32.412  11.728  1.00  0.00     0.068 A 
ATOM      8  C   UNL     1      25.894  32.944  13.002  1.00  0.00     0.138 A 
ATOM      9  C   UNL     1      27.098  32.601  13.647  1.00  0.00     0.047 A 
ATOM     10  C   UNL     1      27.422  33.101  14.919  1.00  0.00     0.064 A 
ENDROOT
BRANCH   1  11
ATOM     11  O   UNL     1      28.989  33.221  16.814  1.00  0.00    -0.493 OA
ATOM     12  C   UNL     1      28.277  34.226  17.528  1.00  0.00     0.278 C 
ENDBRANCH   1  11
BRANCH   2  13
ATOM     13  O   UNL     1      30.717  31.530  15.545  1.00  0.00    -0.490 OA
BRANCH  13  14
ATOM     14  C   UNL     1      30.985  30.257  16.128  1.00  0.00     0.231 C 
BRANCH  14  15
ATOM     15  C   UNL     1      31.946  30.417  17.309  1.00  0.00     0.057 C 
BRANCH  15  16
ATOM     16  C   UNL     1      31.669  31.688  18.131  1.00  0.00     0.088 C 
BRANCH  16  17
ATOM     17  N   UNL     1      31.390  31.388  19.553  1.00  0.00    -0.299 NA
ATOM     18  C   UNL     1      31.607  29.954  19.866  1.00  0.00     0.113 C 
ATOM     19  C   UNL     1      30.038  31.853  19.950  1.00  0.00     0.113 C 
ATOM     20  C   UNL     1      30.718  29.491  21.033  1.00  0.00     0.175 C 
ATOM     21  C   UNL     1      29.007  30.709  19.914  1.00  0.00     0.175 C 
ATOM     22  O   UNL     1      29.328  29.610  20.757  1.00  0.00    -0.379 OA
ENDBRANCH  16  17
ENDBRANCH  15  16
ENDBRANCH  14  15
ENDBRANCH  13  14
ENDBRANCH   2  13
BRANCH   8  23
ATOM     23  O   UNL     1      24.963  33.766  13.663  1.00  0.00    -0.454 OA
BRANCH  23  24
ATOM     24  C   UNL     1      23.583  33.769  13.426  1.00  0.00     0.163 A 
ATOM     25  C   UNL     1      23.055  34.700  12.527  1.00  0.00     0.052 A 
ATOM     26  C   UNL     1      22.729  32.833  14.032  1.00  0.00     0.167 A 
ATOM     27  C   UNL     1      21.682  34.738  12.271  1.00  0.00     0.030 A 
ATOM     28  C   UNL     1      21.355  32.863  13.767  1.00  0.00     0.069 A 
ATOM     29  F   UNL     1      23.229  31.865  14.840  1.00  0.00    -0.203 F 
ATOM     30  C   UNL     1      20.814  33.837  12.906  1.00  0.00     0.044 A 
BRANCH  30  31
ATOM     31  N   UNL     1      19.407  33.895  12.608  1.00  0.00    -0.325 N 
ATOM     32  C   UNL     1      18.804  33.420  11.395  1.00  0.00     0.240 C 
ATOM     33  H   UNL     1      18.762  34.205  13.370  1.00  0.00     0.169 HD
ATOM     34  O   UNL     1      19.493  32.848  10.508  1.00  0.00    -0.273 OA
BRANCH  32  35
ATOM     35  C   UNL     1      17.328  33.594  11.187  1.00  0.00     0.128 C 
ATOM     36  C   UNL     1      16.537  34.243  12.318  1.00  0.00     0.028 C 
ATOM     37  C   UNL     1      16.849  35.037  11.056  1.00  0.00     0.028 C 
BRANCH  35  38
ATOM     38  C   UNL     1      16.593  32.581  10.364  1.00  0.00     0.240 C 
ATOM     39  O   UNL     1      15.757  31.818  10.917  1.00  0.00    -0.274 OA
ATOM     40  N   UNL     1      16.792  32.536   8.944  1.00  0.00    -0.325 N 
ATOM     41  H   UNL     1      17.216  33.373   8.482  1.00  0.00     0.169 HD
BRANCH  40  42
ATOM     42  C   UNL     1      16.352  31.450   8.114  1.00  0.00     0.041 A 
ATOM     43  C   UNL     1      14.985  31.245   7.840  1.00  0.00     0.029 A 
ATOM     44  C   UNL     1      17.295  30.541   7.608  1.00  0.00     0.029 A 
ATOM     45  C   UNL     1      14.579  30.165   7.049  1.00  0.00     0.041 A 
ATOM     46  C   UNL     1      16.886  29.463   6.815  1.00  0.00     0.041 A 
ATOM     47  C   UNL     1      15.528  29.279   6.532  1.00  0.00     0.123 A 
ATOM     48  F   UNL     1      15.132  28.234   5.765  1.00  0.00    -0.207 F 
ENDBRANCH  40  42
ENDBRANCH  35  38
ENDBRANCH  32  35
ENDBRANCH  30  31
ENDBRANCH  23  24
ENDBRANCH   8  23
TORSDOF 12
ENDMDL
MODEL 5
REMARK VINA RESULT:    -9.942      3.679      9.495
REMARK INTER + INTRA:         -17.492
REMARK INTER:                 -16.272
REMARK INTRA:                  -1.220
REMARK UNBOUND:                -0.575
REMARK SMILES COc1cc2c(Oc3ccc(NC(=O)C4(C(=O)Nc5ccc(F)cc5)CC4)cc3F)ccnc2cc1OCCCN1CCOCC1
REMARK SMILES IDX 3 1 36 2 35 3 34 4 33 5 32 6 31 7 6 8 5 9 4 10 2 11 1 12
REMARK SMILES IDX 37 13 38 14 39 15 40 16 41 17 42 18 46 19 43 20 45 21 44 22
REMARK SMILES IDX 7 23 8 24 9 25 29 26 10 27 28 28 30 29 11 30 12 31 13 32
REMARK SMILES IDX 14 34 15 35 26 36 27 37 16 38 17 39 18 40 19 42 20 43 25 44
REMARK SMILES IDX 21 45 24 46 22 47 23 48
REMARK H PARENT 12 33 18 41
REMARK Flexibility Score: inf
ROOT
ATOM      1  C   UNL     1      22.497  34.550  17.982  1.00  0.00     0.161 A 
ATOM      2  C   UNL     1      23.228  35.523  18.680  1.00  0.00     0.163 A 
ATOM      3  C   UNL     1      22.560  36.408  19.549  1.00  0.00     0.079 A 
ATOM      4  C   UNL     1      21.177  36.322  19.721  1.00  0.00     0.078 A 
ATOM      5  N   UNL     1      20.547  37.181  20.567  1.00  0.00    -0.256 NA
ATOM      6  C   UNL     1      19.203  37.138  20.759  1.00  0.00     0.115 A 
ATOM      7  C   UNL     1      18.426  36.199  20.082  1.00  0.00     0.068 A 
ATOM      8  C   UNL     1      19.037  35.288  19.202  1.00  0.00     0.138 A 
ATOM      9  C   UNL     1      20.433  35.349  19.016  1.00  0.00     0.047 A 
ATOM     10  C   UNL     1      21.100  34.466  18.151  1.00  0.00     0.064 A 
ENDROOT
BRANCH   1  11
ATOM     11  O   UNL     1      23.197  33.684  17.126  1.00  0.00    -0.493 OA
ATOM     12  C   UNL     1      22.593  32.875  16.122  1.00  0.00     0.278 C 
ENDBRANCH   1  11
BRANCH   2  13
ATOM     13  O   UNL     1      24.616  35.582  18.483  1.00  0.00    -0.490 OA
BRANCH  13  14
ATOM     14  C   UNL     1      25.289  36.602  17.749  1.00  0.00     0.231 C 
BRANCH  14  15
ATOM     15  C   UNL     1      25.465  36.166  16.293  1.00  0.00     0.057 C 
BRANCH  15  16
ATOM     16  C   UNL     1      24.319  36.648  15.386  1.00  0.00     0.088 C 
BRANCH  16  17
ATOM     17  N   UNL     1      24.615  36.444  13.950  1.00  0.00    -0.299 NA
ATOM     18  C   UNL     1      23.800  37.335  13.088  1.00  0.00     0.113 C 
ATOM     19  C   UNL     1      24.485  35.016  13.567  1.00  0.00     0.113 C 
ATOM     20  C   UNL     1      23.561  36.714  11.702  1.00  0.00     0.175 C 
ATOM     21  C   UNL     1      23.117  34.720  12.923  1.00  0.00     0.175 C 
ATOM     22  O   UNL     1      22.845  35.486  11.756  1.00  0.00    -0.379 OA
ENDBRANCH  16  17
ENDBRANCH  15  16
ENDBRANCH  14  15
ENDBRANCH  13  14
ENDBRANCH   2  13
BRANCH   8  23
ATOM     23  O   UNL     1      18.280  34.357  18.467  1.00  0.00    -0.454 OA
BRANCH  23  24
ATOM     24  C   UNL     1      18.124  34.367  17.076  1.00  0.00     0.163 A 
ATOM     25  C   UNL     1      18.780  33.394  16.318  1.00  0.00     0.052 A 
ATOM     26  C   UNL     1      17.291  35.299  16.434  1.00  0.00     0.167 A 
ATOM     27  C   UNL     1      18.654  33.376  14.926  1.00  0.00     0.030 A 
ATOM     28  C   UNL     1      17.156  35.275  15.041  1.00  0.00     0.069 A 
ATOM     29  F   UNL     1      16.577  36.198  17.156  1.00  0.00    -0.203 F 
ATOM     30  C   UNL     1      17.861  34.330  14.271  1.00  0.00     0.044 A 
BRANCH  30  31
ATOM     31  N   UNL     1      17.743  34.274  12.837  1.00  0.00    -0.325 N 
ATOM     32  C   UNL     1      16.557  33.891  12.125  1.00  0.00     0.240 C 
ATOM     33  H   UNL     1      18.541  34.641  12.269  1.00  0.00     0.169 HD
ATOM     34  O   UNL     1      15.488  33.627  12.738  1.00  0.00    -0.273 OA
BRANCH  32  35
ATOM     35  C   UNL     1      16.587  33.819  10.626  1.00  0.00     0.128 C 
ATOM     36  C   UNL     1      15.727  34.821   9.863  1.00  0.00     0.028 C 
ATOM     37  C   UNL     1      17.238  35.007   9.924  1.00  0.00     0.028 C 
BRANCH  35  38
ATOM     38  C   UNL     1      16.782  32.484   9.975  1.00  0.00     0.240 C 
ATOM     39  O   UNL     1      17.685  31.713  10.396  1.00  0.00    -0.274 OA
ATOM     40  N   UNL     1      15.894  32.064   8.929  1.00  0.00    -0.325 N 
ATOM     41  H   UNL     1      14.978  32.559   8.836  1.00  0.00     0.169 HD
BRANCH  40  42
ATOM     42  C   UNL     1      16.152  30.941   8.071  1.00  0.00     0.041 A 
ATOM     43  C   UNL     1      17.405  30.768   7.450  1.00  0.00     0.029 A 
ATOM     44  C   UNL     1      15.121  30.027   7.801  1.00  0.00     0.029 A 
ATOM     45  C   UNL     1      17.624  29.680   6.599  1.00  0.00     0.041 A 
ATOM     46  C   UNL     1      15.345  28.939   6.950  1.00  0.00     0.041 A 
ATOM     47  C   UNL     1      16.598  28.763   6.354  1.00  0.00     0.123 A 
ATOM     48  F   UNL     1      16.814  27.709   5.529  1.00  0.00    -0.207 F 
ENDBRANCH  40  42
ENDBRANCH  35  38
ENDBRANCH  32  35
ENDBRANCH  30  31
ENDBRANCH  23  24
ENDBRANCH   8  23
TORSDOF 12
ENDMDL
MODEL 6
REMARK VINA RESULT:    -9.932      4.492     12.549
REMARK INTER + INTRA:         -17.473
REMARK INTER:                 -16.005
REMARK INTRA:                  -1.468
REMARK UNBOUND:                -0.575
REMARK SMILES COc1cc2c(Oc3ccc(NC(=O)C4(C(=O)Nc5ccc(F)cc5)CC4)cc3F)ccnc2cc1OCCCN1CCOCC1
REMARK SMILES IDX 3 1 36 2 35 3 34 4 33 5 32 6 31 7 6 8 5 9 4 10 2 11 1 12
REMARK SMILES IDX 37 13 38 14 39 15 40 16 41 17 42 18 46 19 43 20 45 21 44 22
REMARK SMILES IDX 7 23 8 24 9 25 29 26 10 27 28 28 30 29 11 30 12 31 13 32
REMARK SMILES IDX 14 34 15 35 26 36 27 37 16 38 17 39 18 40 19 42 20 43 25 44
REMARK SMILES IDX 21 45 24 46 22 47 23 48
REMARK H PARENT 12 33 18 41
REMARK Flexibility Score: inf
ROOT
ATOM      1  C   UNL     1      28.888  32.763  15.763  1.00  0.00     0.161 A 
ATOM      2  C   UNL     1      29.758  31.815  15.203  1.00  0.00     0.163 A 
ATOM      3  C   UNL     1      29.494  31.296  13.921  1.00  0.00     0.079 A 
ATOM      4  C   UNL     1      28.374  31.718  13.203  1.00  0.00     0.078 A 
ATOM      5  N   UNL     1      28.135  31.211  11.964  1.00  0.00    -0.256 NA
ATOM      6  C   UNL     1      27.055  31.587  11.233  1.00  0.00     0.115 A 
ATOM      7  C   UNL     1      26.149  32.518  11.744  1.00  0.00     0.068 A 
ATOM      8  C   UNL     1      26.361  33.072  13.020  1.00  0.00     0.138 A 
ATOM      9  C   UNL     1      27.488  32.668  13.762  1.00  0.00     0.047 A 
ATOM     10  C   UNL     1      27.754  33.186  15.040  1.00  0.00     0.064 A 
ENDROOT
BRANCH   1  11
ATOM     11  O   UNL     1      29.184  33.259  17.042  1.00  0.00    -0.493 OA
ATOM     12  C   UNL     1      29.257  34.641  17.378  1.00  0.00     0.278 C 
ENDBRANCH   1  11
BRANCH   2  13
ATOM     13  O   UNL     1      30.874  31.412  15.953  1.00  0.00    -0.490 OA
BRANCH  13  14
ATOM     14  C   UNL     1      31.054  30.110  16.503  1.00  0.00     0.231 C 
BRANCH  14  15
ATOM     15  C   UNL     1      31.988  30.180  17.714  1.00  0.00     0.057 C 
BRANCH  15  16
ATOM     16  C   UNL     1      31.793  31.463  18.540  1.00  0.00     0.088 C 
BRANCH  16  17
ATOM     17  N   UNL     1      31.234  31.188  19.883  1.00  0.00    -0.299 NA
ATOM     18  C   UNL     1      31.420  29.770  20.276  1.00  0.00     0.113 C 
ATOM     19  C   UNL     1      29.818  31.619  19.979  1.00  0.00     0.113 C 
ATOM     20  C   UNL     1      30.321  29.306  21.248  1.00  0.00     0.175 C 
ATOM     21  C   UNL     1      28.847  30.442  19.765  1.00  0.00     0.175 C 
ATOM     22  O   UNL     1      29.016  29.374  20.688  1.00  0.00    -0.379 OA
ENDBRANCH  16  17
ENDBRANCH  15  16
ENDBRANCH  14  15
ENDBRANCH  13  14
ENDBRANCH   2  13
BRANCH   8  23
ATOM     23  O   UNL     1      25.446  33.977  13.586  1.00  0.00    -0.454 OA
BRANCH  23  24
ATOM     24  C   UNL     1      24.052  33.867  13.507  1.00  0.00     0.163 A 
ATOM     25  C   UNL     1      23.361  34.689  12.613  1.00  0.00     0.052 A 
ATOM     26  C   UNL     1      23.343  32.922  14.267  1.00  0.00     0.167 A 
ATOM     27  C   UNL     1      21.969  34.613  12.511  1.00  0.00     0.030 A 
ATOM     28  C   UNL     1      21.950  32.837  14.157  1.00  0.00     0.069 A 
ATOM     29  F   UNL     1      24.000  32.054  15.076  1.00  0.00    -0.203 F 
ATOM     30  C   UNL     1      21.247  33.704  13.299  1.00  0.00     0.044 A 
BRANCH  30  31
ATOM     31  N   UNL     1      19.815  33.643  13.158  1.00  0.00    -0.325 N 
ATOM     32  C   UNL     1      18.884  34.487  13.853  1.00  0.00     0.240 C 
ATOM     33  H   UNL     1      19.427  33.014  12.418  1.00  0.00     0.169 HD
ATOM     34  O   UNL     1      19.286  35.407  14.614  1.00  0.00    -0.273 OA
BRANCH  32  35
ATOM     35  C   UNL     1      17.411  34.278  13.657  1.00  0.00     0.128 C 
ATOM     36  C   UNL     1      16.590  33.913  14.889  1.00  0.00     0.028 C 
ATOM     37  C   UNL     1      16.507  35.320  14.310  1.00  0.00     0.028 C 
BRANCH  35  38
ATOM     38  C   UNL     1      16.932  33.718  12.353  1.00  0.00     0.240 C 
ATOM     39  O   UNL     1      16.052  32.815  12.350  1.00  0.00    -0.274 OA
ATOM     40  N   UNL     1      17.422  34.262  11.120  1.00  0.00    -0.325 N 
ATOM     41  H   UNL     1      17.875  35.204  11.146  1.00  0.00     0.169 HD
BRANCH  40  42
ATOM     42  C   UNL     1      17.237  33.631   9.843  1.00  0.00     0.041 A 
ATOM     43  C   UNL     1      16.258  34.086   8.937  1.00  0.00     0.029 A 
ATOM     44  C   UNL     1      18.007  32.505   9.511  1.00  0.00     0.029 A 
ATOM     45  C   UNL     1      16.080  33.439   7.709  1.00  0.00     0.041 A 
ATOM     46  C   UNL     1      17.826  31.861   8.281  1.00  0.00     0.041 A 
ATOM     47  C   UNL     1      16.867  32.332   7.379  1.00  0.00     0.123 A 
ATOM     48  F   UNL     1      16.692  31.708   6.188  1.00  0.00    -0.207 F 
ENDBRANCH  40  42
ENDBRANCH  35  38
ENDBRANCH  32  35
ENDBRANCH  30  31
ENDBRANCH  23  24
ENDBRANCH   8  23
TORSDOF 12
ENDMDL
MODEL 7
REMARK VINA RESULT:    -9.902      4.380     13.077
REMARK INTER + INTRA:         -17.423
REMARK INTER:                 -15.752
REMARK INTRA:                  -1.671
REMARK UNBOUND:                -0.575
REMARK SMILES COc1cc2c(Oc3ccc(NC(=O)C4(C(=O)Nc5ccc(F)cc5)CC4)cc3F)ccnc2cc1OCCCN1CCOCC1
REMARK SMILES IDX 3 1 36 2 35 3 34 4 33 5 32 6 31 7 6 8 5 9 4 10 2 11 1 12
REMARK SMILES IDX 37 13 38 14 39 15 40 16 41 17 42 18 46 19 43 20 45 21 44 22
REMARK SMILES IDX 7 23 8 24 9 25 29 26 10 27 28 28 30 29 11 30 12 31 13 32
REMARK SMILES IDX 14 34 15 35 26 36 27 37 16 38 17 39 18 40 19 42 20 43 25 44
REMARK SMILES IDX 21 45 24 46 22 47 23 48
REMARK H PARENT 12 33 18 41
REMARK Flexibility Score: inf
ROOT
ATOM      1  C   UNL     1      29.585  32.896  15.869  1.00  0.00     0.161 A 
ATOM      2  C   UNL     1      30.341  31.735  15.647  1.00  0.00     0.163 A 
ATOM      3  C   UNL     1      30.071  30.929  14.525  1.00  0.00     0.079 A 
ATOM      4  C   UNL     1      29.057  31.278  13.630  1.00  0.00     0.078 A 
ATOM      5  N   UNL     1      28.810  30.491  12.549  1.00  0.00    -0.256 NA
ATOM      6  C   UNL     1      27.830  30.788  11.657  1.00  0.00     0.115 A 
ATOM      7  C   UNL     1      27.039  31.924  11.834  1.00  0.00     0.068 A 
ATOM      8  C   UNL     1      27.263  32.767  12.936  1.00  0.00     0.138 A 
ATOM      9  C   UNL     1      28.285  32.442  13.850  1.00  0.00     0.047 A 
ATOM     10  C   UNL     1      28.557  33.246  14.969  1.00  0.00     0.064 A 
ENDROOT
BRANCH   1  11
ATOM     11  O   UNL     1      29.884  33.676  16.997  1.00  0.00    -0.493 OA
ATOM     12  C   UNL     1      29.462  35.023  17.186  1.00  0.00     0.278 C 
ENDBRANCH   1  11
BRANCH   2  13
ATOM     13  O   UNL     1      31.352  31.415  16.567  1.00  0.00    -0.490 OA
BRANCH  13  14
ATOM     14  C   UNL     1      31.558  30.120  17.127  1.00  0.00     0.231 C 
BRANCH  14  15
ATOM     15  C   UNL     1      32.165  30.249  18.526  1.00  0.00     0.057 C 
BRANCH  15  16
ATOM     16  C   UNL     1      31.628  31.468  19.297  1.00  0.00     0.088 C 
BRANCH  16  17
ATOM     17  N   UNL     1      30.648  31.087  20.339  1.00  0.00    -0.299 NA
ATOM     18  C   UNL     1      30.819  29.676  20.766  1.00  0.00     0.113 C 
ATOM     19  C   UNL     1      29.259  31.382  19.910  1.00  0.00     0.113 C 
ATOM     20  C   UNL     1      29.495  29.075  21.264  1.00  0.00     0.175 C 
ATOM     21  C   UNL     1      28.557  30.131  19.350  1.00  0.00     0.175 C 
ATOM     22  O   UNL     1      28.484  29.045  20.265  1.00  0.00    -0.379 OA
ENDBRANCH  16  17
ENDBRANCH  15  16
ENDBRANCH  14  15
ENDBRANCH  13  14
ENDBRANCH   2  13
BRANCH   8  23
ATOM     23  O   UNL     1      26.456  33.896  13.172  1.00  0.00    -0.454 OA
BRANCH  23  24
ATOM     24  C   UNL     1      25.058  33.880  13.257  1.00  0.00     0.163 A 
ATOM     25  C   UNL     1      24.453  33.114  14.256  1.00  0.00     0.052 A 
ATOM     26  C   UNL     1      24.259  34.649  12.395  1.00  0.00     0.167 A 
ATOM     27  C   UNL     1      23.060  33.067  14.367  1.00  0.00     0.030 A 
ATOM     28  C   UNL     1      22.865  34.612  12.513  1.00  0.00     0.069 A 
ATOM     29  F   UNL     1      24.827  35.468  11.474  1.00  0.00    -0.203 F 
ATOM     30  C   UNL     1      22.251  33.796  13.483  1.00  0.00     0.044 A 
BRANCH  30  31
ATOM     31  N   UNL     1      20.821  33.737  13.635  1.00  0.00    -0.325 N 
ATOM     32  C   UNL     1      19.889  33.519  12.564  1.00  0.00     0.240 C 
ATOM     33  H   UNL     1      20.435  33.743  14.607  1.00  0.00     0.169 HD
ATOM     34  O   UNL     1      20.289  33.301  11.390  1.00  0.00    -0.273 OA
BRANCH  32  35
ATOM     35  C   UNL     1      18.416  33.537  12.853  1.00  0.00     0.128 C 
ATOM     36  C   UNL     1      17.489  33.961  11.719  1.00  0.00     0.028 C 
ATOM     37  C   UNL     1      17.588  32.492  12.111  1.00  0.00     0.028 C 
BRANCH  35  38
ATOM     38  C   UNL     1      17.960  33.873  14.240  1.00  0.00     0.240 C 
ATOM     39  O   UNL     1      18.301  33.134  15.203  1.00  0.00    -0.274 OA
ATOM     40  N   UNL     1      17.203  35.069  14.472  1.00  0.00    -0.325 N 
ATOM     41  H   UNL     1      17.225  35.812  13.738  1.00  0.00     0.169 HD
BRANCH  40  42
ATOM     42  C   UNL     1      16.500  35.339  15.696  1.00  0.00     0.041 A 
ATOM     43  C   UNL     1      17.161  35.885  16.814  1.00  0.00     0.029 A 
ATOM     44  C   UNL     1      15.141  35.005  15.799  1.00  0.00     0.029 A 
ATOM     45  C   UNL     1      16.461  36.116  18.003  1.00  0.00     0.041 A 
ATOM     46  C   UNL     1      14.443  35.239  16.990  1.00  0.00     0.041 A 
ATOM     47  C   UNL     1      15.102  35.800  18.088  1.00  0.00     0.123 A 
ATOM     48  F   UNL     1      14.426  36.027  19.241  1.00  0.00    -0.207 F 
ENDBRANCH  40  42
ENDBRANCH  35  38
ENDBRANCH  32  35
ENDBRANCH  30  31
ENDBRANCH  23  24
ENDBRANCH   8  23
TORSDOF 12
ENDMDL
MODEL 8
REMARK VINA RESULT:    -9.874      4.630     13.070
REMARK INTER + INTRA:         -17.376
REMARK INTER:                 -15.552
REMARK INTRA:                  -1.824
REMARK UNBOUND:                -0.575
REMARK SMILES COc1cc2c(Oc3ccc(NC(=O)C4(C(=O)Nc5ccc(F)cc5)CC4)cc3F)ccnc2cc1OCCCN1CCOCC1
REMARK SMILES IDX 3 1 36 2 35 3 34 4 33 5 32 6 31 7 6 8 5 9 4 10 2 11 1 12
REMARK SMILES IDX 37 13 38 14 39 15 40 16 41 17 42 18 46 19 43 20 45 21 44 22
REMARK SMILES IDX 7 23 8 24 9 25 29 26 10 27 28 28 30 29 11 30 12 31 13 32
REMARK SMILES IDX 14 34 15 35 26 36 27 37 16 38 17 39 18 40 19 42 20 43 25 44
REMARK SMILES IDX 21 45 24 46 22 47 23 48
REMARK H PARENT 12 33 18 41
REMARK Flexibility Score: inf
ROOT
ATOM      1  C   UNL     1      29.792  32.493  15.521  1.00  0.00     0.161 A 
ATOM      2  C   UNL     1      30.667  31.401  15.624  1.00  0.00     0.163 A 
ATOM      3  C   UNL     1      30.754  30.473  14.569  1.00  0.00     0.079 A 
ATOM      4  C   UNL     1      29.976  30.633  13.420  1.00  0.00     0.078 A 
ATOM      5  N   UNL     1      30.073  29.730  12.408  1.00  0.00    -0.256 NA
ATOM      6  C   UNL     1      29.332  29.842  11.276  1.00  0.00     0.115 A 
ATOM      7  C   UNL     1      28.436  30.901  11.124  1.00  0.00     0.068 A 
ATOM      8  C   UNL     1      28.307  31.860  12.145  1.00  0.00     0.138 A 
ATOM      9  C   UNL     1      29.086  31.726  13.311  1.00  0.00     0.047 A 
ATOM     10  C   UNL     1      29.002  32.652  14.364  1.00  0.00     0.064 A 
ENDROOT
BRANCH   1  11
ATOM     11  O   UNL     1      29.734  33.398  16.593  1.00  0.00    -0.493 OA
ATOM     12  C   UNL     1      28.537  33.790  17.257  1.00  0.00     0.278 C 
ENDBRANCH   1  11
BRANCH   2  13
ATOM     13  O   UNL     1      31.433  31.271  16.793  1.00  0.00    -0.490 OA
BRANCH  13  14
ATOM     14  C   UNL     1      31.646  30.047  17.491  1.00  0.00     0.231 C 
BRANCH  14  15
ATOM     15  C   UNL     1      32.174  30.335  18.899  1.00  0.00     0.057 C 
BRANCH  15  16
ATOM     16  C   UNL     1      31.413  31.475  19.597  1.00  0.00     0.088 C 
BRANCH  16  17
ATOM     17  N   UNL     1      30.438  30.974  20.592  1.00  0.00    -0.299 NA
ATOM     18  C   UNL     1      30.675  29.548  20.925  1.00  0.00     0.113 C 
ATOM     19  C   UNL     1      29.042  31.228  20.158  1.00  0.00     0.113 C 
ATOM     20  C   UNL     1      29.376  28.847  21.356  1.00  0.00     0.175 C 
ATOM     21  C   UNL     1      28.414  29.984  19.500  1.00  0.00     0.175 C 
ATOM     22  O   UNL     1      28.384  28.835  20.338  1.00  0.00    -0.379 OA
ENDBRANCH  16  17
ENDBRANCH  15  16
ENDBRANCH  14  15
ENDBRANCH  13  14
ENDBRANCH   2  13
BRANCH   8  23
ATOM     23  O   UNL     1      27.382  32.915  12.046  1.00  0.00    -0.454 OA
BRANCH  23  24
ATOM     24  C   UNL     1      26.022  32.824  12.366  1.00  0.00     0.163 A 
ATOM     25  C   UNL     1      25.559  33.453  13.525  1.00  0.00     0.052 A 
ATOM     26  C   UNL     1      25.110  32.158  11.530  1.00  0.00     0.167 A 
ATOM     27  C   UNL     1      24.210  33.378  13.881  1.00  0.00     0.030 A 
ATOM     28  C   UNL     1      23.757  32.092  11.880  1.00  0.00     0.069 A 
ATOM     29  F   UNL     1      25.521  31.615  10.356  1.00  0.00    -0.203 F 
ATOM     30  C   UNL     1      23.299  32.677  13.076  1.00  0.00     0.044 A 
BRANCH  30  31
ATOM     31  N   UNL     1      21.914  32.632  13.466  1.00  0.00    -0.325 N 
ATOM     32  C   UNL     1      20.897  33.527  12.991  1.00  0.00     0.240 C 
ATOM     33  H   UNL     1      21.601  31.825  14.053  1.00  0.00     0.169 HD
ATOM     34  O   UNL     1      21.158  34.405  12.125  1.00  0.00    -0.273 OA
BRANCH  32  35
ATOM     35  C   UNL     1      19.499  33.406  13.524  1.00  0.00     0.128 C 
ATOM     36  C   UNL     1      19.306  32.581  14.791  1.00  0.00     0.028 C 
ATOM     37  C   UNL     1      19.242  34.102  14.857  1.00  0.00     0.028 C 
BRANCH  35  38
ATOM     38  C   UNL     1      18.358  33.403  12.553  1.00  0.00     0.240 C 
ATOM     39  O   UNL     1      17.365  32.656  12.763  1.00  0.00    -0.274 OA
ATOM     40  N   UNL     1      18.371  34.302  11.435  1.00  0.00    -0.325 N 
ATOM     41  H   UNL     1      19.020  35.120  11.472  1.00  0.00     0.169 HD
BRANCH  40  42
ATOM     42  C   UNL     1      17.474  34.193  10.318  1.00  0.00     0.041 A 
ATOM     43  C   UNL     1      16.432  35.121  10.124  1.00  0.00     0.029 A 
ATOM     44  C   UNL     1      17.602  33.112   9.432  1.00  0.00     0.029 A 
ATOM     45  C   UNL     1      15.555  34.981   9.043  1.00  0.00     0.041 A 
ATOM     46  C   UNL     1      16.725  32.975   8.350  1.00  0.00     0.041 A 
ATOM     47  C   UNL     1      15.706  33.913   8.153  1.00  0.00     0.123 A 
ATOM     48  F   UNL     1      14.856  33.779   7.105  1.00  0.00    -0.207 F 
ENDBRANCH  40  42
ENDBRANCH  35  38
ENDBRANCH  32  35
ENDBRANCH  30  31
ENDBRANCH  23  24
ENDBRANCH   8  23
TORSDOF 12
ENDMDL
MODEL 9
REMARK VINA RESULT:    -9.862      3.813     12.638
REMARK INTER + INTRA:         -17.356
REMARK INTER:                 -15.605
REMARK INTRA:                  -1.750
REMARK UNBOUND:                -0.575
REMARK SMILES COc1cc2c(Oc3ccc(NC(=O)C4(C(=O)Nc5ccc(F)cc5)CC4)cc3F)ccnc2cc1OCCCN1CCOCC1
REMARK SMILES IDX 3 1 36 2 35 3 34 4 33 5 32 6 31 7 6 8 5 9 4 10 2 11 1 12
REMARK SMILES IDX 37 13 38 14 39 15 40 16 41 17 42 18 46 19 43 20 45 21 44 22
REMARK SMILES IDX 7 23 8 24 9 25 29 26 10 27 28 28 30 29 11 30 12 31 13 32
REMARK SMILES IDX 14 34 15 35 26 36 27 37 16 38 17 39 18 40 19 42 20 43 25 44
REMARK SMILES IDX 21 45 24 46 22 47 23 48
REMARK H PARENT 12 33 18 41
REMARK Flexibility Score: inf
ROOT
ATOM      1  C   UNL     1      29.397  31.316  13.254  1.00  0.00     0.161 A 
ATOM      2  C   UNL     1      30.361  31.762  14.171  1.00  0.00     0.163 A 
ATOM      3  C   UNL     1      30.205  33.015  14.794  1.00  0.00     0.079 A 
ATOM      4  C   UNL     1      29.098  33.816  14.506  1.00  0.00     0.078 A 
ATOM      5  N   UNL     1      28.960  35.023  15.119  1.00  0.00    -0.256 NA
ATOM      6  C   UNL     1      27.904  35.837  14.865  1.00  0.00     0.115 A 
ATOM      7  C   UNL     1      26.921  35.450  13.952  1.00  0.00     0.068 A 
ATOM      8  C   UNL     1      27.023  34.209  13.300  1.00  0.00     0.138 A 
ATOM      9  C   UNL     1      28.127  33.378  13.578  1.00  0.00     0.047 A 
ATOM     10  C   UNL     1      28.282  32.127  12.959  1.00  0.00     0.064 A 
ENDROOT
BRANCH   1  11
ATOM     11  O   UNL     1      29.586  30.061  12.654  1.00  0.00    -0.493 OA
ATOM     12  C   UNL     1      29.277  29.758  11.297  1.00  0.00     0.278 C 
ENDBRANCH   1  11
BRANCH   2  13
ATOM     13  O   UNL     1      31.461  30.932  14.437  1.00  0.00    -0.490 OA
BRANCH  13  14
ATOM     14  C   UNL     1      31.965  30.645  15.739  1.00  0.00     0.231 C 
BRANCH  14  15
ATOM     15  C   UNL     1      30.949  29.806  16.517  1.00  0.00     0.057 C 
BRANCH  15  16
ATOM     16  C   UNL     1      30.705  30.338  17.940  1.00  0.00     0.088 C 
BRANCH  16  17
ATOM     17  N   UNL     1      29.281  30.258  18.334  1.00  0.00    -0.299 NA
ATOM     18  C   UNL     1      28.548  31.506  18.005  1.00  0.00     0.113 C 
ATOM     19  C   UNL     1      29.133  29.877  19.760  1.00  0.00     0.113 C 
ATOM     20  C   UNL     1      27.363  31.731  18.958  1.00  0.00     0.175 C 
ATOM     21  C   UNL     1      28.905  31.107  20.659  1.00  0.00     0.175 C 
ATOM     22  O   UNL     1      27.757  31.874  20.316  1.00  0.00    -0.379 OA
ENDBRANCH  16  17
ENDBRANCH  15  16
ENDBRANCH  14  15
ENDBRANCH  13  14
ENDBRANCH   2  13
BRANCH   8  23
ATOM     23  O   UNL     1      26.076  33.806  12.340  1.00  0.00    -0.454 OA
BRANCH  23  24
ATOM     24  C   UNL     1      24.687  33.850  12.513  1.00  0.00     0.163 A 
ATOM     25  C   UNL     1      24.061  32.808  13.202  1.00  0.00     0.052 A 
ATOM     26  C   UNL     1      23.921  34.934  12.053  1.00  0.00     0.167 A 
ATOM     27  C   UNL     1      22.676  32.814  13.388  1.00  0.00     0.030 A 
ATOM     28  C   UNL     1      22.536  34.946  12.249  1.00  0.00     0.069 A 
ATOM     29  F   UNL     1      24.518  35.997  11.458  1.00  0.00    -0.203 F 
ATOM     30  C   UNL     1      21.896  33.869  12.893  1.00  0.00     0.044 A 
BRANCH  30  31
ATOM     31  N   UNL     1      20.473  33.850  13.115  1.00  0.00    -0.325 N 
ATOM     32  C   UNL     1      19.496  33.443  12.145  1.00  0.00     0.240 C 
ATOM     33  H   UNL     1      20.130  34.041  14.084  1.00  0.00     0.169 HD
ATOM     34  O   UNL     1      19.845  33.006  11.015  1.00  0.00    -0.273 OA
BRANCH  32  35
ATOM     35  C   UNL     1      18.037  33.525  12.488  1.00  0.00     0.128 C 
ATOM     36  C   UNL     1      17.098  34.058  11.412  1.00  0.00     0.028 C 
ATOM     37  C   UNL     1      17.128  32.568  11.724  1.00  0.00     0.028 C 
BRANCH  35  38
ATOM     38  C   UNL     1      17.648  33.811  13.906  1.00  0.00     0.240 C 
ATOM     39  O   UNL     1      18.087  33.076  14.831  1.00  0.00    -0.274 OA
ATOM     40  N   UNL     1      16.841  34.958  14.207  1.00  0.00    -0.325 N 
ATOM     41  H   UNL     1      16.778  35.714  13.488  1.00  0.00     0.169 HD
BRANCH  40  42
ATOM     42  C   UNL     1      16.200  35.168  15.475  1.00  0.00     0.041 A 
ATOM     43  C   UNL     1      14.828  34.902  15.654  1.00  0.00     0.029 A 
ATOM     44  C   UNL     1      16.940  35.697  16.544  1.00  0.00     0.029 A 
ATOM     45  C   UNL     1      14.220  35.137  16.891  1.00  0.00     0.041 A 
ATOM     46  C   UNL     1      16.329  35.930  17.782  1.00  0.00     0.041 A 
ATOM     47  C   UNL     1      14.971  35.645  17.956  1.00  0.00     0.123 A 
ATOM     48  F   UNL     1      14.379  35.871  19.155  1.00  0.00    -0.207 F 
ENDBRANCH  40  42
ENDBRANCH  35  38
ENDBRANCH  32  35
ENDBRANCH  30  31
ENDBRANCH  23  24
ENDBRANCH   8  23
TORSDOF 12
ENDMDL
MODEL 10
REMARK VINA RESULT:    -9.717      5.322      9.833
REMARK INTER + INTRA:         -17.108
REMARK INTER:                 -15.944
REMARK INTRA:                  -1.164
REMARK UNBOUND:                -0.575
REMARK SMILES COc1cc2c(Oc3ccc(NC(=O)C4(C(=O)Nc5ccc(F)cc5)CC4)cc3F)ccnc2cc1OCCCN1CCOCC1
REMARK SMILES IDX 3 1 36 2 35 3 34 4 33 5 32 6 31 7 6 8 5 9 4 10 2 11 1 12
REMARK SMILES IDX 37 13 38 14 39 15 40 16 41 17 42 18 46 19 43 20 45 21 44 22
REMARK SMILES IDX 7 23 8 24 9 25 29 26 10 27 28 28 30 29 11 30 12 31 13 32
REMARK SMILES IDX 14 34 15 35 26 36 27 37 16 38 17 39 18 40 19 42 20 43 25 44
REMARK SMILES IDX 21 45 24 46 22 47 23 48
REMARK H PARENT 12 33 18 41
REMARK Flexibility Score: inf
ROOT
ATOM      1  C   UNL     1      17.115  32.513  12.028  1.00  0.00     0.161 A 
ATOM      2  C   UNL     1      17.938  32.659  10.901  1.00  0.00     0.163 A 
ATOM      3  C   UNL     1      19.247  33.154  11.052  1.00  0.00     0.079 A 
ATOM      4  C   UNL     1      19.732  33.500  12.315  1.00  0.00     0.078 A 
ATOM      5  N   UNL     1      21.001  33.974  12.445  1.00  0.00    -0.256 NA
ATOM      6  C   UNL     1      21.512  34.328  13.652  1.00  0.00     0.115 A 
ATOM      7  C   UNL     1      20.734  34.216  14.804  1.00  0.00     0.068 A 
ATOM      8  C   UNL     1      19.418  33.726  14.716  1.00  0.00     0.138 A 
ATOM      9  C   UNL     1      18.907  33.363  13.454  1.00  0.00     0.047 A 
ATOM     10  C   UNL     1      17.602  32.867  13.302  1.00  0.00     0.064 A 
ENDROOT
BRANCH   1  11
ATOM     11  O   UNL     1      15.816  32.015  11.839  1.00  0.00    -0.493 OA
ATOM     12  C   UNL     1      14.624  32.703  12.203  1.00  0.00     0.278 C 
ENDBRANCH   1  11
BRANCH   2  13
ATOM     13  O   UNL     1      17.418  32.303   9.647  1.00  0.00    -0.490 OA
BRANCH  13  14
ATOM     14  C   UNL     1      16.834  33.217   8.721  1.00  0.00     0.231 C 
BRANCH  14  15
ATOM     15  C   UNL     1      16.364  32.465   7.473  1.00  0.00     0.057 C 
BRANCH  15  16
ATOM     16  C   UNL     1      15.236  31.463   7.774  1.00  0.00     0.088 C 
BRANCH  16  17
ATOM     17  N   UNL     1      15.732  30.071   7.869  1.00  0.00    -0.299 NA
ATOM     18  C   UNL     1      16.903  29.842   6.987  1.00  0.00     0.113 C 
ATOM     19  C   UNL     1      14.645  29.091   7.630  1.00  0.00     0.113 C 
ATOM     20  C   UNL     1      16.993  28.373   6.542  1.00  0.00     0.175 C 
ATOM     21  C   UNL     1      14.651  28.576   6.178  1.00  0.00     0.175 C 
ATOM     22  O   UNL     1      15.865  27.948   5.788  1.00  0.00    -0.379 OA
ENDBRANCH  16  17
ENDBRANCH  15  16
ENDBRANCH  14  15
ENDBRANCH  13  14
ENDBRANCH   2  13
BRANCH   8  23
ATOM     23  O   UNL     1      18.590  33.642  15.850  1.00  0.00    -0.454 OA
BRANCH  23  24
ATOM     24  C   UNL     1      18.553  34.579  16.890  1.00  0.00     0.163 A 
ATOM     25  C   UNL     1      19.139  34.249  18.115  1.00  0.00     0.052 A 
ATOM     26  C   UNL     1      17.986  35.853  16.715  1.00  0.00     0.167 A 
ATOM     27  C   UNL     1      19.115  35.156  19.179  1.00  0.00     0.030 A 
ATOM     28  C   UNL     1      17.973  36.765  17.776  1.00  0.00     0.069 A 
ATOM     29  F   UNL     1      17.490  36.227  15.509  1.00  0.00    -0.203 F 
ATOM     30  C   UNL     1      18.511  36.413  19.029  1.00  0.00     0.044 A 
BRANCH  30  31
ATOM     31  N   UNL     1      18.518  37.327  20.141  1.00  0.00    -0.325 N 
ATOM     32  C   UNL     1      19.673  38.036  20.615  1.00  0.00     0.240 C 
ATOM     33  H   UNL     1      17.597  37.579  20.568  1.00  0.00     0.169 HD
ATOM     34  O   UNL     1      20.782  37.939  20.024  1.00  0.00    -0.273 OA
BRANCH  32  35
ATOM     35  C   UNL     1      19.553  38.918  21.824  1.00  0.00     0.128 C 
ATOM     36  C   UNL     1      19.560  38.235  23.187  1.00  0.00     0.028 C 
ATOM     37  C   UNL     1      20.793  38.991  22.709  1.00  0.00     0.028 C 
BRANCH  35  38
ATOM     38  C   UNL     1      18.747  40.176  21.718  1.00  0.00     0.240 C 
ATOM     39  O   UNL     1      19.330  41.272  21.502  1.00  0.00    -0.274 OA
ATOM     40  N   UNL     1      17.315  40.113  21.791  1.00  0.00    -0.325 N 
ATOM     41  H   UNL     1      16.857  39.187  21.634  1.00  0.00     0.169 HD
BRANCH  40  42
ATOM     42  C   UNL     1      16.478  41.267  21.968  1.00  0.00     0.041 A 
ATOM     43  C   UNL     1      16.292  41.848  23.238  1.00  0.00     0.029 A 
ATOM     44  C   UNL     1      15.788  41.796  20.865  1.00  0.00     0.029 A 
ATOM     45  C   UNL     1      15.452  42.956  23.390  1.00  0.00     0.041 A 
ATOM     46  C   UNL     1      14.950  42.906  21.021  1.00  0.00     0.041 A 
ATOM     47  C   UNL     1      14.787  43.488  22.282  1.00  0.00     0.123 A 
ATOM     48  F   UNL     1      13.974  44.563  22.432  1.00  0.00    -0.207 F 
ENDBRANCH  40  42
ENDBRANCH  35  38
ENDBRANCH  32  35
ENDBRANCH  30  31
ENDBRANCH  23  24
ENDBRANCH   8  23
TORSDOF 12
ENDMDL
MODEL 11
REMARK VINA RESULT:    -9.715      3.698      9.274
REMARK INTER + INTRA:         -17.104
REMARK INTER:                 -15.528
REMARK INTRA:                  -1.576
REMARK UNBOUND:                -0.575
REMARK SMILES COc1cc2c(Oc3ccc(NC(=O)C4(C(=O)Nc5ccc(F)cc5)CC4)cc3F)ccnc2cc1OCCCN1CCOCC1
REMARK SMILES IDX 3 1 36 2 35 3 34 4 33 5 32 6 31 7 6 8 5 9 4 10 2 11 1 12
REMARK SMILES IDX 37 13 38 14 39 15 40 16 41 17 42 18 46 19 43 20 45 21 44 22
REMARK SMILES IDX 7 23 8 24 9 25 29 26 10 27 28 28 30 29 11 30 12 31 13 32
REMARK SMILES IDX 14 34 15 35 26 36 27 37 16 38 17 39 18 40 19 42 20 43 25 44
REMARK SMILES IDX 21 45 24 46 22 47 23 48
REMARK H PARENT 12 33 18 41
REMARK Flexibility Score: inf
ROOT
ATOM      1  C   UNL     1      21.143  36.233  17.380  1.00  0.00     0.161 A 
ATOM      2  C   UNL     1      21.024  36.073  18.769  1.00  0.00     0.163 A 
ATOM      3  C   UNL     1      21.944  35.262  19.460  1.00  0.00     0.079 A 
ATOM      4  C   UNL     1      22.974  34.616  18.773  1.00  0.00     0.078 A 
ATOM      5  N   UNL     1      23.857  33.839  19.455  1.00  0.00    -0.256 NA
ATOM      6  C   UNL     1      24.870  33.187  18.828  1.00  0.00     0.115 A 
ATOM      7  C   UNL     1      25.029  33.300  17.446  1.00  0.00     0.068 A 
ATOM      8  C   UNL     1      24.141  34.098  16.702  1.00  0.00     0.138 A 
ATOM      9  C   UNL     1      23.097  34.766  17.373  1.00  0.00     0.047 A 
ATOM     10  C   UNL     1      22.179  35.577  16.685  1.00  0.00     0.064 A 
ENDROOT
BRANCH   1  11
ATOM     11  O   UNL     1      20.208  37.051  16.725  1.00  0.00    -0.493 OA
ATOM     12  C   UNL     1      19.761  36.859  15.387  1.00  0.00     0.278 C 
ENDBRANCH   1  11
BRANCH   2  13
ATOM     13  O   UNL     1      19.976  36.736  19.427  1.00  0.00    -0.490 OA
BRANCH  13  14
ATOM     14  C   UNL     1      18.808  36.099  19.939  1.00  0.00     0.231 C 
BRANCH  14  15
ATOM     15  C   UNL     1      18.269  35.099  18.913  1.00  0.00     0.057 C 
BRANCH  15  16
ATOM     16  C   UNL     1      17.220  35.719  17.973  1.00  0.00     0.088 C 
BRANCH  16  17
ATOM     17  N   UNL     1      16.741  34.759  16.954  1.00  0.00    -0.299 NA
ATOM     18  C   UNL     1      16.564  35.404  15.630  1.00  0.00     0.113 C 
ATOM     19  C   UNL     1      15.516  34.055  17.407  1.00  0.00     0.113 C 
ATOM     20  C   UNL     1      15.481  34.696  14.799  1.00  0.00     0.175 C 
ATOM     21  C   UNL     1      14.241  34.699  16.829  1.00  0.00     0.175 C 
ATOM     22  O   UNL     1      14.197  34.731  15.408  1.00  0.00    -0.379 OA
ENDBRANCH  16  17
ENDBRANCH  15  16
ENDBRANCH  14  15
ENDBRANCH  13  14
ENDBRANCH   2  13
BRANCH   8  23
ATOM     23  O   UNL     1      24.242  34.198  15.303  1.00  0.00    -0.454 OA
BRANCH  23  24
ATOM     24  C   UNL     1      23.191  33.985  14.403  1.00  0.00     0.163 A 
ATOM     25  C   UNL     1      22.875  34.990  13.485  1.00  0.00     0.052 A 
ATOM     26  C   UNL     1      22.483  32.772  14.371  1.00  0.00     0.167 A 
ATOM     27  C   UNL     1      21.827  34.816  12.577  1.00  0.00     0.030 A 
ATOM     28  C   UNL     1      21.441  32.592  13.454  1.00  0.00     0.069 A 
ATOM     29  F   UNL     1      22.829  31.749  15.193  1.00  0.00    -0.203 F 
ATOM     30  C   UNL     1      21.084  33.626  12.567  1.00  0.00     0.044 A 
BRANCH  30  31
ATOM     31  N   UNL     1      20.021  33.475  11.608  1.00  0.00    -0.325 N 
ATOM     32  C   UNL     1      18.641  33.784  11.856  1.00  0.00     0.240 C 
ATOM     33  H   UNL     1      20.283  33.225  10.627  1.00  0.00     0.169 HD
ATOM     34  O   UNL     1      18.274  34.282  12.955  1.00  0.00    -0.273 OA
BRANCH  32  35
ATOM     35  C   UNL     1      17.622  33.525  10.785  1.00  0.00     0.128 C 
ATOM     36  C   UNL     1      16.255  34.178  10.951  1.00  0.00     0.028 C 
ATOM     37  C   UNL     1      17.243  34.733   9.933  1.00  0.00     0.028 C 
BRANCH  35  38
ATOM     38  C   UNL     1      17.643  32.204  10.078  1.00  0.00     0.240 C 
ATOM     39  O   UNL     1      18.411  31.292  10.488  1.00  0.00    -0.274 OA
ATOM     40  N   UNL     1      16.739  31.962   8.991  1.00  0.00    -0.325 N 
ATOM     41  H   UNL     1      15.908  32.589   8.897  1.00  0.00     0.169 HD
BRANCH  40  42
ATOM     42  C   UNL     1      16.860  30.850   8.090  1.00  0.00     0.041 A 
ATOM     43  C   UNL     1      17.962  30.729   7.221  1.00  0.00     0.029 A 
ATOM     44  C   UNL     1      15.835  29.892   8.034  1.00  0.00     0.029 A 
ATOM     45  C   UNL     1      18.046  29.650   6.335  1.00  0.00     0.041 A 
ATOM     46  C   UNL     1      15.923  28.813   7.147  1.00  0.00     0.041 A 
ATOM     47  C   UNL     1      17.030  28.690   6.302  1.00  0.00     0.123 A 
ATOM     48  F   UNL     1      17.115  27.644   5.443  1.00  0.00    -0.207 F 
ENDBRANCH  40  42
ENDBRANCH  35  38
ENDBRANCH  32  35
ENDBRANCH  30  31
ENDBRANCH  23  24
ENDBRANCH   8  23
TORSDOF 12
ENDMDL
MODEL 12
REMARK VINA RESULT:    -9.626      5.183      9.525
REMARK INTER + INTRA:         -16.953
REMARK INTER:                 -15.660
REMARK INTRA:                  -1.293
REMARK UNBOUND:                -0.575
REMARK SMILES COc1cc2c(Oc3ccc(NC(=O)C4(C(=O)Nc5ccc(F)cc5)CC4)cc3F)ccnc2cc1OCCCN1CCOCC1
REMARK SMILES IDX 3 1 36 2 35 3 34 4 33 5 32 6 31 7 6 8 5 9 4 10 2 11 1 12
REMARK SMILES IDX 37 13 38 14 39 15 40 16 41 17 42 18 46 19 43 20 45 21 44 22
REMARK SMILES IDX 7 23 8 24 9 25 29 26 10 27 28 28 30 29 11 30 12 31 13 32
REMARK SMILES IDX 14 34 15 35 26 36 27 37 16 38 17 39 18 40 19 42 20 43 25 44
REMARK SMILES IDX 21 45 24 46 22 47 23 48
REMARK H PARENT 12 33 18 41
REMARK Flexibility Score: inf
ROOT
ATOM      1  C   UNL     1      17.268  33.590  13.337  1.00  0.00     0.161 A 
ATOM      2  C   UNL     1      17.603  33.568  11.974  1.00  0.00     0.163 A 
ATOM      3  C   UNL     1      18.953  33.463  11.589  1.00  0.00     0.079 A 
ATOM      4  C   UNL     1      19.960  33.380  12.552  1.00  0.00     0.078 A 
ATOM      5  N   UNL     1      21.259  33.275  12.164  1.00  0.00    -0.256 NA
ATOM      6  C   UNL     1      22.272  33.199  13.065  1.00  0.00     0.115 A 
ATOM      7  C   UNL     1      21.998  33.228  14.433  1.00  0.00     0.068 A 
ATOM      8  C   UNL     1      20.668  33.331  14.879  1.00  0.00     0.138 A 
ATOM      9  C   UNL     1      19.632  33.409  13.927  1.00  0.00     0.047 A 
ATOM     10  C   UNL     1      18.285  33.512  14.310  1.00  0.00     0.064 A 
ENDROOT
BRANCH   1  11
ATOM     11  O   UNL     1      15.911  33.694  13.683  1.00  0.00    -0.493 OA
ATOM     12  C   UNL     1      15.376  34.665  14.577  1.00  0.00     0.278 C 
ENDBRANCH   1  11
BRANCH   2  13
ATOM     13  O   UNL     1      16.565  33.654  11.033  1.00  0.00    -0.490 OA
BRANCH  13  14
ATOM     14  C   UNL     1      16.531  34.576   9.946  1.00  0.00     0.231 C 
BRANCH  14  15
ATOM     15  C   UNL     1      16.355  33.820   8.627  1.00  0.00     0.057 C 
BRANCH  15  16
ATOM     16  C   UNL     1      16.279  32.296   8.822  1.00  0.00     0.088 C 
BRANCH  16  17
ATOM     17  N   UNL     1      15.659  31.611   7.666  1.00  0.00    -0.299 NA
ATOM     18  C   UNL     1      14.694  30.569   8.096  1.00  0.00     0.113 C 
ATOM     19  C   UNL     1      16.686  31.080   6.736  1.00  0.00     0.113 C 
ATOM     20  C   UNL     1      14.580  29.444   7.054  1.00  0.00     0.175 C 
ATOM     21  C   UNL     1      16.954  29.582   6.977  1.00  0.00     0.175 C 
ATOM     22  O   UNL     1      15.805  28.755   6.838  1.00  0.00    -0.379 OA
ENDBRANCH  16  17
ENDBRANCH  15  16
ENDBRANCH  14  15
ENDBRANCH  13  14
ENDBRANCH   2  13
BRANCH   8  23
ATOM     23  O   UNL     1      20.358  33.410  16.249  1.00  0.00    -0.454 OA
BRANCH  23  24
ATOM     24  C   UNL     1      20.644  34.503  17.076  1.00  0.00     0.163 A 
ATOM     25  C   UNL     1      19.817  35.628  17.016  1.00  0.00     0.052 A 
ATOM     26  C   UNL     1      21.709  34.476  17.992  1.00  0.00     0.167 A 
ATOM     27  C   UNL     1      20.075  36.741  17.821  1.00  0.00     0.030 A 
ATOM     28  C   UNL     1      21.961  35.586  18.806  1.00  0.00     0.069 A 
ATOM     29  F   UNL     1      22.472  33.362  18.130  1.00  0.00    -0.203 F 
ATOM     30  C   UNL     1      21.163  36.741  18.706  1.00  0.00     0.044 A 
BRANCH  30  31
ATOM     31  N   UNL     1      21.391  37.900  19.531  1.00  0.00    -0.325 N 
ATOM     32  C   UNL     1      20.756  38.146  20.794  1.00  0.00     0.240 C 
ATOM     33  H   UNL     1      22.152  38.557  19.245  1.00  0.00     0.169 HD
ATOM     34  O   UNL     1      19.973  37.300  21.304  1.00  0.00    -0.273 OA
BRANCH  32  35
ATOM     35  C   UNL     1      21.041  39.425  21.526  1.00  0.00     0.128 C 
ATOM     36  C   UNL     1      22.162  39.402  22.559  1.00  0.00     0.028 C 
ATOM     37  C   UNL     1      22.384  40.077  21.212  1.00  0.00     0.028 C 
BRANCH  35  38
ATOM     38  C   UNL     1      19.906  40.362  21.804  1.00  0.00     0.240 C 
ATOM     39  O   UNL     1      20.046  41.270  22.668  1.00  0.00    -0.274 OA
ATOM     40  N   UNL     1      18.698  40.267  21.036  1.00  0.00    -0.325 N 
ATOM     41  H   UNL     1      18.735  39.748  20.129  1.00  0.00     0.169 HD
BRANCH  40  42
ATOM     42  C   UNL     1      17.474  40.926  21.396  1.00  0.00     0.041 A 
ATOM     43  C   UNL     1      16.768  40.572  22.562  1.00  0.00     0.029 A 
ATOM     44  C   UNL     1      16.940  41.906  20.543  1.00  0.00     0.029 A 
ATOM     45  C   UNL     1      15.564  41.211  22.879  1.00  0.00     0.041 A 
ATOM     46  C   UNL     1      15.737  42.545  20.864  1.00  0.00     0.041 A 
ATOM     47  C   UNL     1      15.053  42.201  22.034  1.00  0.00     0.123 A 
ATOM     48  F   UNL     1      13.887  42.820  22.344  1.00  0.00    -0.207 F 
ENDBRANCH  40  42
ENDBRANCH  35  38
ENDBRANCH  32  35
ENDBRANCH  30  31
ENDBRANCH  23  24
ENDBRANCH   8  23
TORSDOF 12
ENDMDL
MODEL 13
REMARK VINA RESULT:    -9.571      3.381     10.991
REMARK INTER + INTRA:         -16.859
REMARK INTER:                 -14.981
REMARK INTRA:                  -1.878
REMARK UNBOUND:                -0.575
REMARK SMILES COc1cc2c(Oc3ccc(NC(=O)C4(C(=O)Nc5ccc(F)cc5)CC4)cc3F)ccnc2cc1OCCCN1CCOCC1
REMARK SMILES IDX 3 1 36 2 35 3 34 4 33 5 32 6 31 7 6 8 5 9 4 10 2 11 1 12
REMARK SMILES IDX 37 13 38 14 39 15 40 16 41 17 42 18 46 19 43 20 45 21 44 22
REMARK SMILES IDX 7 23 8 24 9 25 29 26 10 27 28 28 30 29 11 30 12 31 13 32
REMARK SMILES IDX 14 34 15 35 26 36 27 37 16 38 17 39 18 40 19 42 20 43 25 44
REMARK SMILES IDX 21 45 24 46 22 47 23 48
REMARK H PARENT 12 33 18 41
REMARK Flexibility Score: inf
ROOT
ATOM      1  C   UNL     1      27.217  34.231  14.470  1.00  0.00     0.161 A 
ATOM      2  C   UNL     1      27.985  35.383  14.698  1.00  0.00     0.163 A 
ATOM      3  C   UNL     1      27.771  36.147  15.861  1.00  0.00     0.079 A 
ATOM      4  C   UNL     1      26.800  35.766  16.790  1.00  0.00     0.078 A 
ATOM      5  N   UNL     1      26.607  36.512  17.910  1.00  0.00    -0.256 NA
ATOM      6  C   UNL     1      25.670  36.183  18.837  1.00  0.00     0.115 A 
ATOM      7  C   UNL     1      24.869  35.055  18.655  1.00  0.00     0.068 A 
ATOM      8  C   UNL     1      25.038  34.252  17.513  1.00  0.00     0.138 A 
ATOM      9  C   UNL     1      26.016  34.611  16.564  1.00  0.00     0.047 A 
ATOM     10  C   UNL     1      26.233  33.849  15.404  1.00  0.00     0.064 A 
ENDROOT
BRANCH   1  11
ATOM     11  O   UNL     1      27.460  33.494  13.300  1.00  0.00    -0.493 OA
ATOM     12  C   UNL     1      26.447  32.932  12.473  1.00  0.00     0.278 C 
ENDBRANCH   1  11
BRANCH   2  13
ATOM     13  O   UNL     1      28.952  35.737  13.744  1.00  0.00    -0.490 OA
BRANCH  13  14
ATOM     14  C   UNL     1      30.360  35.704  13.965  1.00  0.00     0.231 C 
BRANCH  14  15
ATOM     15  C   UNL     1      30.877  34.272  13.812  1.00  0.00     0.057 C 
BRANCH  15  16
ATOM     16  C   UNL     1      30.716  33.732  12.381  1.00  0.00     0.088 C 
BRANCH  16  17
ATOM     17  N   UNL     1      31.118  32.311  12.267  1.00  0.00    -0.299 NA
ATOM     18  C   UNL     1      30.359  31.608  11.205  1.00  0.00     0.113 C 
ATOM     19  C   UNL     1      31.034  31.618  13.576  1.00  0.00     0.113 C 
ATOM     20  C   UNL     1      30.229  30.105  11.508  1.00  0.00     0.175 C 
ATOM     21  C   UNL     1      29.720  30.825  13.717  1.00  0.00     0.175 C 
ATOM     22  O   UNL     1      29.525  29.837  12.714  1.00  0.00    -0.379 OA
ENDBRANCH  16  17
ENDBRANCH  15  16
ENDBRANCH  14  15
ENDBRANCH  13  14
ENDBRANCH   2  13
BRANCH   8  23
ATOM     23  O   UNL     1      24.218  33.134  17.275  1.00  0.00    -0.454 OA
BRANCH  23  24
ATOM     24  C   UNL     1      22.913  33.188  16.770  1.00  0.00     0.163 A 
ATOM     25  C   UNL     1      21.921  33.810  17.532  1.00  0.00     0.052 A 
ATOM     26  C   UNL     1      22.591  32.674  15.502  1.00  0.00     0.167 A 
ATOM     27  C   UNL     1      20.606  33.876  17.064  1.00  0.00     0.030 A 
ATOM     28  C   UNL     1      21.277  32.750  15.028  1.00  0.00     0.069 A 
ATOM     29  F   UNL     1      23.555  32.143  14.708  1.00  0.00    -0.203 F 
ATOM     30  C   UNL     1      20.264  33.326  15.819  1.00  0.00     0.044 A 
BRANCH  30  31
ATOM     31  N   UNL     1      18.902  33.424  15.362  1.00  0.00    -0.325 N 
ATOM     32  C   UNL     1      18.482  34.120  14.179  1.00  0.00     0.240 C 
ATOM     33  H   UNL     1      18.180  32.860  15.865  1.00  0.00     0.169 HD
ATOM     34  O   UNL     1      19.321  34.658  13.409  1.00  0.00    -0.273 OA
BRANCH  32  35
ATOM     35  C   UNL     1      17.019  34.194  13.848  1.00  0.00     0.128 C 
ATOM     36  C   UNL     1      16.034  33.935  14.982  1.00  0.00     0.028 C 
ATOM     37  C   UNL     1      16.260  35.356  14.481  1.00  0.00     0.028 C 
BRANCH  35  38
ATOM     38  C   UNL     1      16.572  33.787  12.477  1.00  0.00     0.240 C 
ATOM     39  O   UNL     1      15.481  33.171  12.337  1.00  0.00    -0.274 OA
ATOM     40  N   UNL     1      17.349  34.164  11.332  1.00  0.00    -0.325 N 
ATOM     41  H   UNL     1      18.043  34.938  11.444  1.00  0.00     0.169 HD
BRANCH  40  42
ATOM     42  C   UNL     1      17.157  33.604  10.023  1.00  0.00     0.041 A 
ATOM     43  C   UNL     1      16.339  34.240   9.068  1.00  0.00     0.029 A 
ATOM     44  C   UNL     1      17.752  32.373   9.703  1.00  0.00     0.029 A 
ATOM     45  C   UNL     1      16.147  33.663   7.808  1.00  0.00     0.041 A 
ATOM     46  C   UNL     1      17.560  31.800   8.441  1.00  0.00     0.041 A 
ATOM     47  C   UNL     1      16.762  32.448   7.493  1.00  0.00     0.123 A 
ATOM     48  F   UNL     1      16.575  31.892   6.270  1.00  0.00    -0.207 F 
ENDBRANCH  40  42
ENDBRANCH  35  38
ENDBRANCH  32  35
ENDBRANCH  30  31
ENDBRANCH  23  24
ENDBRANCH   8  23
TORSDOF 12
ENDMDL
MODEL 14
REMARK VINA RESULT:    -9.553      3.157     10.212
REMARK INTER + INTRA:         -16.829
REMARK INTER:                 -15.698
REMARK INTRA:                  -1.131
REMARK UNBOUND:                -0.575
REMARK SMILES COc1cc2c(Oc3ccc(NC(=O)C4(C(=O)Nc5ccc(F)cc5)CC4)cc3F)ccnc2cc1OCCCN1CCOCC1
REMARK SMILES IDX 3 1 36 2 35 3 34 4 33 5 32 6 31 7 6 8 5 9 4 10 2 11 1 12
REMARK SMILES IDX 37 13 38 14 39 15 40 16 41 17 42 18 46 19 43 20 45 21 44 22
REMARK SMILES IDX 7 23 8 24 9 25 29 26 10 27 28 28 30 29 11 30 12 31 13 32
REMARK SMILES IDX 14 34 15 35 26 36 27 37 16 38 17 39 18 40 19 42 20 43 25 44
REMARK SMILES IDX 21 45 24 46 22 47 23 48
REMARK H PARENT 12 33 18 41
REMARK Flexibility Score: inf
ROOT
ATOM      1  C   UNL     1      24.441  34.437  13.819  1.00  0.00     0.161 A 
ATOM      2  C   UNL     1      25.597  33.729  13.459  1.00  0.00     0.163 A 
ATOM      3  C   UNL     1      26.475  33.271  14.460  1.00  0.00     0.079 A 
ATOM      4  C   UNL     1      26.202  33.515  15.808  1.00  0.00     0.078 A 
ATOM      5  N   UNL     1      27.058  33.062  16.763  1.00  0.00    -0.256 NA
ATOM      6  C   UNL     1      26.836  33.282  18.084  1.00  0.00     0.115 A 
ATOM      7  C   UNL     1      25.708  33.991  18.499  1.00  0.00     0.068 A 
ATOM      8  C   UNL     1      24.795  34.473  17.545  1.00  0.00     0.138 A 
ATOM      9  C   UNL     1      25.043  34.234  16.178  1.00  0.00     0.047 A 
ATOM     10  C   UNL     1      24.167  34.689  15.179  1.00  0.00     0.064 A 
ENDROOT
BRANCH   1  11
ATOM     11  O   UNL     1      23.588  34.878  12.794  1.00  0.00    -0.493 OA
ATOM     12  C   UNL     1      23.322  36.244  12.494  1.00  0.00     0.278 C 
ENDBRANCH   1  11
BRANCH   2  13
ATOM     13  O   UNL     1      25.841  33.503  12.095  1.00  0.00    -0.490 OA
BRANCH  13  14
ATOM     14  C   UNL     1      25.565  32.281  11.415  1.00  0.00     0.231 C 
BRANCH  14  15
ATOM     15  C   UNL     1      26.876  31.617  10.984  1.00  0.00     0.057 C 
BRANCH  15  16
ATOM     16  C   UNL     1      27.545  30.829  12.124  1.00  0.00     0.088 C 
BRANCH  16  17
ATOM     17  N   UNL     1      28.973  31.182  12.288  1.00  0.00    -0.299 NA
ATOM     18  C   UNL     1      29.292  32.491  11.668  1.00  0.00     0.113 C 
ATOM     19  C   UNL     1      29.859  30.096  11.800  1.00  0.00     0.113 C 
ATOM     20  C   UNL     1      30.760  32.558  11.216  1.00  0.00     0.175 C 
ATOM     21  C   UNL     1      30.362  30.370  10.370  1.00  0.00     0.175 C 
ATOM     22  O   UNL     1      31.085  31.586  10.230  1.00  0.00    -0.379 OA
ENDBRANCH  16  17
ENDBRANCH  15  16
ENDBRANCH  14  15
ENDBRANCH  13  14
ENDBRANCH   2  13
BRANCH   8  23
ATOM     23  O   UNL     1      23.671  35.231  17.923  1.00  0.00    -0.454 OA
BRANCH  23  24
ATOM     24  C   UNL     1      22.369  35.030  17.449  1.00  0.00     0.163 A 
ATOM     25  C   UNL     1      21.662  36.121  16.937  1.00  0.00     0.052 A 
ATOM     26  C   UNL     1      21.779  33.755  17.434  1.00  0.00     0.167 A 
ATOM     27  C   UNL     1      20.358  35.960  16.462  1.00  0.00     0.030 A 
ATOM     28  C   UNL     1      20.477  33.591  16.948  1.00  0.00     0.069 A 
ATOM     29  F   UNL     1      22.477  32.667  17.845  1.00  0.00    -0.203 F 
ATOM     30  C   UNL     1      19.743  34.700  16.484  1.00  0.00     0.044 A 
BRANCH  30  31
ATOM     31  N   UNL     1      18.403  34.568  15.974  1.00  0.00    -0.325 N 
ATOM     32  C   UNL     1      18.063  34.427  14.586  1.00  0.00     0.240 C 
ATOM     33  H   UNL     1      17.628  34.457  16.667  1.00  0.00     0.169 HD
ATOM     34  O   UNL     1      18.958  34.350  13.703  1.00  0.00    -0.273 OA
BRANCH  32  35
ATOM     35  C   UNL     1      16.618  34.357  14.184  1.00  0.00     0.128 C 
ATOM     36  C   UNL     1      15.609  34.010  15.272  1.00  0.00     0.028 C 
ATOM     37  C   UNL     1      15.720  35.443  14.767  1.00  0.00     0.028 C 
BRANCH  35  38
ATOM     38  C   UNL     1      16.280  33.899  12.798  1.00  0.00     0.240 C 
ATOM     39  O   UNL     1      15.299  33.127  12.620  1.00  0.00    -0.274 OA
ATOM     40  N   UNL     1      17.027  34.399  11.680  1.00  0.00    -0.325 N 
ATOM     41  H   UNL     1      17.591  35.268  11.817  1.00  0.00     0.169 HD
BRANCH  40  42
ATOM     42  C   UNL     1      16.962  33.830  10.362  1.00  0.00     0.041 A 
ATOM     43  C   UNL     1      16.170  34.411   9.352  1.00  0.00     0.029 A 
ATOM     44  C   UNL     1      17.658  32.642  10.089  1.00  0.00     0.029 A 
ATOM     45  C   UNL     1      16.103  33.824   8.084  1.00  0.00     0.041 A 
ATOM     46  C   UNL     1      17.590  32.058   8.819  1.00  0.00     0.041 A 
ATOM     47  C   UNL     1      16.817  32.653   7.816  1.00  0.00     0.123 A 
ATOM     48  F   UNL     1      16.752  32.087   6.585  1.00  0.00    -0.207 F 
ENDBRANCH  40  42
ENDBRANCH  35  38
ENDBRANCH  32  35
ENDBRANCH  30  31
ENDBRANCH  23  24
ENDBRANCH   8  23
TORSDOF 12
ENDMDL
MODEL 15
REMARK VINA RESULT:    -9.533      4.519     12.690
REMARK INTER + INTRA:         -16.795
REMARK INTER:                 -15.331
REMARK INTRA:                  -1.464
REMARK UNBOUND:                -0.575
REMARK SMILES COc1cc2c(Oc3ccc(NC(=O)C4(C(=O)Nc5ccc(F)cc5)CC4)cc3F)ccnc2cc1OCCCN1CCOCC1
REMARK SMILES IDX 3 1 36 2 35 3 34 4 33 5 32 6 31 7 6 8 5 9 4 10 2 11 1 12
REMARK SMILES IDX 37 13 38 14 39 15 40 16 41 17 42 18 46 19 43 20 45 21 44 22
REMARK SMILES IDX 7 23 8 24 9 25 29 26 10 27 28 28 30 29 11 30 12 31 13 32
REMARK SMILES IDX 14 34 15 35 26 36 27 37 16 38 17 39 18 40 19 42 20 43 25 44
REMARK SMILES IDX 21 45 24 46 22 47 23 48
REMARK H PARENT 12 33 18 41
REMARK Flexibility Score: inf
ROOT
ATOM      1  C   UNL     1      30.241  33.064  15.282  1.00  0.00     0.161 A 
ATOM      2  C   UNL     1      30.875  31.819  15.151  1.00  0.00     0.163 A 
ATOM      3  C   UNL     1      30.381  30.877  14.228  1.00  0.00     0.079 A 
ATOM      4  C   UNL     1      29.265  31.173  13.443  1.00  0.00     0.078 A 
ATOM      5  N   UNL     1      28.801  30.254  12.554  1.00  0.00    -0.256 NA
ATOM      6  C   UNL     1      27.716  30.497  11.775  1.00  0.00     0.115 A 
ATOM      7  C   UNL     1      27.039  31.713  11.872  1.00  0.00     0.068 A 
ATOM      8  C   UNL     1      27.487  32.693  12.775  1.00  0.00     0.138 A 
ATOM      9  C   UNL     1      28.616  32.422  13.574  1.00  0.00     0.047 A 
ATOM     10  C   UNL     1      29.111  33.362  14.493  1.00  0.00     0.064 A 
ENDROOT
BRANCH   1  11
ATOM     11  O   UNL     1      30.764  33.978  16.210  1.00  0.00    -0.493 OA
ATOM     12  C   UNL     1      31.547  35.118  15.872  1.00  0.00     0.278 C 
ENDBRANCH   1  11
BRANCH   2  13
ATOM     13  O   UNL     1      31.994  31.554  15.956  1.00  0.00    -0.490 OA
BRANCH  13  14
ATOM     14  C   UNL     1      32.026  30.594  17.010  1.00  0.00     0.231 C 
BRANCH  14  15
ATOM     15  C   UNL     1      31.098  31.036  18.144  1.00  0.00     0.057 C 
BRANCH  15  16
ATOM     16  C   UNL     1      29.660  30.516  17.971  1.00  0.00     0.088 C 
BRANCH  16  17
ATOM     17  N   UNL     1      28.825  30.762  19.169  1.00  0.00    -0.299 NA
ATOM     18  C   UNL     1      29.205  32.021  19.855  1.00  0.00     0.113 C 
ATOM     19  C   UNL     1      28.836  29.595  20.085  1.00  0.00     0.113 C 
ATOM     20  C   UNL     1      28.893  31.959  21.359  1.00  0.00     0.175 C 
ATOM     21  C   UNL     1      29.845  29.782  21.235  1.00  0.00     0.175 C 
ATOM     22  O   UNL     1      29.608  30.933  22.036  1.00  0.00    -0.379 OA
ENDBRANCH  16  17
ENDBRANCH  15  16
ENDBRANCH  14  15
ENDBRANCH  13  14
ENDBRANCH   2  13
BRANCH   8  23
ATOM     23  O   UNL     1      26.803  33.913  12.932  1.00  0.00    -0.454 OA
BRANCH  23  24
ATOM     24  C   UNL     1      25.419  34.041  13.106  1.00  0.00     0.163 A 
ATOM     25  C   UNL     1      24.645  34.494  12.035  1.00  0.00     0.052 A 
ATOM     26  C   UNL     1      24.791  33.683  14.310  1.00  0.00     0.167 A 
ATOM     27  C   UNL     1      23.262  34.642  12.173  1.00  0.00     0.030 A 
ATOM     28  C   UNL     1      23.405  33.820  14.445  1.00  0.00     0.069 A 
ATOM     29  F   UNL     1      25.511  33.159  15.334  1.00  0.00    -0.203 F 
ATOM     30  C   UNL     1      22.631  34.330  13.386  1.00  0.00     0.044 A 
BRANCH  30  31
ATOM     31  N   UNL     1      21.202  34.482  13.488  1.00  0.00    -0.325 N 
ATOM     32  C   UNL     1      20.267  33.397  13.593  1.00  0.00     0.240 C 
ATOM     33  H   UNL     1      20.824  35.449  13.604  1.00  0.00     0.169 HD
ATOM     34  O   UNL     1      20.663  32.203  13.662  1.00  0.00    -0.273 OA
BRANCH  32  35
ATOM     35  C   UNL     1      18.796  33.693  13.635  1.00  0.00     0.128 C 
ATOM     36  C   UNL     1      18.106  33.601  14.991  1.00  0.00     0.028 C 
ATOM     37  C   UNL     1      18.403  34.964  14.381  1.00  0.00     0.028 C 
BRANCH  35  38
ATOM     38  C   UNL     1      17.959  33.346  12.442  1.00  0.00     0.240 C 
ATOM     39  O   UNL     1      16.889  32.699  12.600  1.00  0.00    -0.274 OA
ATOM     40  N   UNL     1      18.342  33.815  11.142  1.00  0.00    -0.325 N 
ATOM     41  H   UNL     1      19.022  34.607  11.087  1.00  0.00     0.169 HD
BRANCH  40  42
ATOM     42  C   UNL     1      17.770  33.323   9.919  1.00  0.00     0.041 A 
ATOM     43  C   UNL     1      18.233  32.135   9.320  1.00  0.00     0.029 A 
ATOM     44  C   UNL     1      16.765  34.066   9.279  1.00  0.00     0.029 A 
ATOM     45  C   UNL     1      17.677  31.689   8.117  1.00  0.00     0.041 A 
ATOM     46  C   UNL     1      16.210  33.616   8.076  1.00  0.00     0.041 A 
ATOM     47  C   UNL     1      16.662  32.425   7.499  1.00  0.00     0.123 A 
ATOM     48  F   UNL     1      16.124  31.990   6.333  1.00  0.00    -0.207 F 
ENDBRANCH  40  42
ENDBRANCH  35  38
ENDBRANCH  32  35
ENDBRANCH  30  31
ENDBRANCH  23  24
ENDBRANCH   8  23
TORSDOF 12
ENDMDL
