MODEL 1
REMARK VINA RESULT:    -8.067      0.000      0.000
REMARK INTER + INTRA:         -13.000
REMARK INTER:                 -11.840
REMARK INTRA:                  -1.160
REMARK UNBOUND:                -1.160
REMARK SMILES CCCOC(C(=O)OC1CCN(C)CC1)(c1ccccc1)c1ccccc1
REMARK SMILES IDX 5 1 4 2 3 3 2 4 1 5 6 6 7 7 8 8 9 9 10 10 15 11 11 12 14 13
REMARK SMILES IDX 12 14 13 15 16 16 17 17 21 18 18 19 20 20 19 21 22 22 23 23
REMARK SMILES IDX 27 24 24 25 26 26 25 27
REMARK H PARENT
REMARK Flexibility Score: inf
ROOT
ATOM      1  C   UNL     1      12.143  12.834  15.075  1.00  0.00     0.215 C 
ENDROOT
BRANCH   1   2
ATOM      2  O   UNL     1      12.895  13.914  15.633  1.00  0.00    -0.354 OA
BRANCH   2   3
ATOM      3  C   UNL     1      12.104  15.038  15.986  1.00  0.00     0.162 C 
BRANCH   3   4
ATOM      4  C   UNL     1      12.461  16.203  15.065  1.00  0.00     0.025 C 
ATOM      5  C   UNL     1      11.367  16.449  14.031  1.00  0.00     0.006 C 
ENDBRANCH   3   4
ENDBRANCH   2   3
ENDBRANCH   1   2
BRANCH   1   6
ATOM      6  C   UNL     1      10.758  12.774  15.699  1.00  0.00     0.348 C 
ATOM      7  O   UNL     1       9.777  13.319  15.120  1.00  0.00    -0.248 OA
BRANCH   6   8
ATOM      8  O   UNL     1      10.603  12.215  16.974  1.00  0.00    -0.460 OA
BRANCH   8   9
ATOM      9  C   UNL     1       9.827  11.047  17.239  1.00  0.00     0.179 C 
ATOM     10  C   UNL     1       8.496  11.437  17.921  1.00  0.00     0.061 C 
ATOM     11  C   UNL     1      10.665  10.089  18.111  1.00  0.00     0.061 C 
ATOM     12  C   UNL     1       8.648  11.476  19.447  1.00  0.00     0.088 C 
ATOM     13  C   UNL     1       9.777   9.283  19.065  1.00  0.00     0.088 C 
ATOM     14  N   UNL     1       9.062  10.167  20.018  1.00  0.00    -0.306 NA
ATOM     15  C   UNL     1       7.920   9.455  20.612  1.00  0.00     0.105 C 
ENDBRANCH   8   9
ENDBRANCH   6   8
ENDBRANCH   1   6
BRANCH   1  16
ATOM     16  C   UNL     1      12.804  11.513  15.489  1.00  0.00    -0.000 A 
ATOM     17  C   UNL     1      13.735  11.459  16.550  1.00  0.00     0.008 A 
ATOM     18  C   UNL     1      12.414  10.297  14.881  1.00  0.00     0.008 A 
ATOM     19  C   UNL     1      14.284  10.240  16.955  1.00  0.00     0.000 A 
ATOM     20  C   UNL     1      12.965   9.082  15.294  1.00  0.00     0.000 A 
ATOM     21  C   UNL     1      13.903   9.054  16.327  1.00  0.00     0.000 A 
ENDBRANCH   1  16
BRANCH   1  22
ATOM     22  C   UNL     1      12.123  12.939  13.534  1.00  0.00    -0.000 A 
ATOM     23  C   UNL     1      13.282  13.372  12.853  1.00  0.00     0.008 A 
ATOM     24  C   UNL     1      10.943  12.741  12.781  1.00  0.00     0.008 A 
ATOM     25  C   UNL     1      13.281  13.528  11.465  1.00  0.00     0.000 A 
ATOM     26  C   UNL     1      10.950  12.898  11.392  1.00  0.00     0.000 A 
ATOM     27  C   UNL     1      12.118  13.284  10.734  1.00  0.00     0.000 A 
ENDBRANCH   1  22
TORSDOF 8
ENDMDL
MODEL 2
REMARK VINA RESULT:    -8.064      0.466      1.174
REMARK INTER + INTRA:         -12.995
REMARK INTER:                 -12.000
REMARK INTRA:                  -0.995
REMARK UNBOUND:                -1.160
REMARK SMILES CCCOC(C(=O)OC1CCN(C)CC1)(c1ccccc1)c1ccccc1
REMARK SMILES IDX 5 1 4 2 3 3 2 4 1 5 6 6 7 7 8 8 9 9 10 10 15 11 11 12 14 13
REMARK SMILES IDX 12 14 13 15 16 16 17 17 21 18 18 19 20 20 19 21 22 22 23 23
REMARK SMILES IDX 27 24 24 25 26 26 25 27
REMARK H PARENT
REMARK Flexibility Score: inf
ROOT
ATOM      1  C   UNL     1      12.034  12.816  15.134  1.00  0.00     0.215 C 
ENDROOT
BRANCH   1   2
ATOM      2  O   UNL     1      12.814  13.873  15.698  1.00  0.00    -0.354 OA
BRANCH   2   3
ATOM      3  C   UNL     1      12.162  15.133  15.686  1.00  0.00     0.162 C 
BRANCH   3   4
ATOM      4  C   UNL     1      13.166  16.203  15.261  1.00  0.00     0.025 C 
ATOM      5  C   UNL     1      14.601  15.704  15.395  1.00  0.00     0.006 C 
ENDBRANCH   3   4
ENDBRANCH   2   3
ENDBRANCH   1   2
BRANCH   1   6
ATOM      6  C   UNL     1      10.642  12.799  15.746  1.00  0.00     0.348 C 
ATOM      7  O   UNL     1       9.679  13.352  15.146  1.00  0.00    -0.248 OA
BRANCH   6   8
ATOM      8  O   UNL     1      10.463  12.272  17.032  1.00  0.00    -0.460 OA
BRANCH   8   9
ATOM      9  C   UNL     1       9.759  11.060  17.301  1.00  0.00     0.179 C 
ATOM     10  C   UNL     1       8.407  11.374  17.983  1.00  0.00     0.061 C 
ATOM     11  C   UNL     1      10.652  10.157  18.175  1.00  0.00     0.061 C 
ATOM     12  C   UNL     1       8.558  11.427  19.510  1.00  0.00     0.088 C 
ATOM     13  C   UNL     1       9.814   9.303  19.133  1.00  0.00     0.088 C 
ATOM     14  N   UNL     1       9.049  10.146  20.084  1.00  0.00    -0.306 NA
ATOM     15  C   UNL     1       7.952   9.370  20.682  1.00  0.00     0.105 C 
ENDBRANCH   8   9
ENDBRANCH   6   8
ENDBRANCH   1   6
BRANCH   1  16
ATOM     16  C   UNL     1      12.649  11.475  15.554  1.00  0.00    -0.000 A 
ATOM     17  C   UNL     1      12.293  10.270  14.908  1.00  0.00     0.008 A 
ATOM     18  C   UNL     1      13.669  11.431  16.532  1.00  0.00     0.008 A 
ATOM     19  C   UNL     1      12.905   9.064  15.260  1.00  0.00     0.000 A 
ATOM     20  C   UNL     1      14.279  10.222  16.876  1.00  0.00     0.000 A 
ATOM     21  C   UNL     1      13.894   9.039  16.244  1.00  0.00     0.000 A 
ENDBRANCH   1  16
BRANCH   1  22
ATOM     22  C   UNL     1      12.030  12.921  13.593  1.00  0.00    -0.000 A 
ATOM     23  C   UNL     1      13.218  13.283  12.920  1.00  0.00     0.008 A 
ATOM     24  C   UNL     1      10.846  12.794  12.832  1.00  0.00     0.008 A 
ATOM     25  C   UNL     1      13.236  13.437  11.532  1.00  0.00     0.000 A 
ATOM     26  C   UNL     1      10.871  12.950  11.444  1.00  0.00     0.000 A 
ATOM     27  C   UNL     1      12.065  13.264  10.793  1.00  0.00     0.000 A 
ENDBRANCH   1  22
TORSDOF 8
ENDMDL
MODEL 3
REMARK VINA RESULT:    -7.989      1.008      1.948
REMARK INTER + INTRA:         -12.885
REMARK INTER:                 -11.989
REMARK INTRA:                  -0.896
REMARK UNBOUND:                -1.160
REMARK SMILES CCCOC(C(=O)OC1CCN(C)CC1)(c1ccccc1)c1ccccc1
REMARK SMILES IDX 5 1 4 2 3 3 2 4 1 5 6 6 7 7 8 8 9 9 10 10 15 11 11 12 14 13
REMARK SMILES IDX 12 14 13 15 16 16 17 17 21 18 18 19 20 20 19 21 22 22 23 23
REMARK SMILES IDX 27 24 24 25 26 26 25 27
REMARK H PARENT
REMARK Flexibility Score: inf
ROOT
ATOM      1  C   UNL     1      12.238  13.084  15.028  1.00  0.00     0.215 C 
ENDROOT
BRANCH   1   2
ATOM      2  O   UNL     1      13.236  14.004  15.477  1.00  0.00    -0.354 OA
BRANCH   2   3
ATOM      3  C   UNL     1      13.211  15.249  14.797  1.00  0.00     0.162 C 
BRANCH   3   4
ATOM      4  C   UNL     1      14.618  15.843  14.803  1.00  0.00     0.025 C 
ATOM      5  C   UNL     1      15.034  16.301  13.409  1.00  0.00     0.006 C 
ENDBRANCH   3   4
ENDBRANCH   2   3
ENDBRANCH   1   2
BRANCH   1   6
ATOM      6  C   UNL     1      10.931  13.315  15.768  1.00  0.00     0.348 C 
ATOM      7  O   UNL     1      10.488  14.487  15.922  1.00  0.00    -0.248 OA
BRANCH   6   8
ATOM      8  O   UNL     1      10.286  12.232  16.378  1.00  0.00    -0.460 OA
BRANCH   8   9
ATOM      9  C   UNL     1      10.197  12.055  17.792  1.00  0.00     0.179 C 
ATOM     10  C   UNL     1      10.459  10.576  18.159  1.00  0.00     0.061 C 
ATOM     11  C   UNL     1       8.806  12.530  18.259  1.00  0.00     0.061 C 
ATOM     12  C   UNL     1       9.156   9.765  18.146  1.00  0.00     0.088 C 
ATOM     13  C   UNL     1       8.313  11.714  19.458  1.00  0.00     0.088 C 
ATOM     14  N   UNL     1       8.148  10.281  19.109  1.00  0.00    -0.306 NA
ATOM     15  C   UNL     1       8.104   9.463  20.331  1.00  0.00     0.105 C 
ENDBRANCH   8   9
ENDBRANCH   6   8
ENDBRANCH   1   6
BRANCH   1  16
ATOM     16  C   UNL     1      12.660  11.666  15.436  1.00  0.00    -0.000 A 
ATOM     17  C   UNL     1      12.147  10.529  14.774  1.00  0.00     0.008 A 
ATOM     18  C   UNL     1      13.656  11.473  16.421  1.00  0.00     0.008 A 
ATOM     19  C   UNL     1      12.584   9.247  15.117  1.00  0.00     0.000 A 
ATOM     20  C   UNL     1      14.091  10.188  16.755  1.00  0.00     0.000 A 
ATOM     21  C   UNL     1      13.552   9.076  16.107  1.00  0.00     0.000 A 
ENDBRANCH   1  16
BRANCH   1  22
ATOM     22  C   UNL     1      12.100  13.157  13.491  1.00  0.00    -0.000 A 
ATOM     23  C   UNL     1      10.814  13.135  12.908  1.00  0.00     0.008 A 
ATOM     24  C   UNL     1      13.221  13.115  12.631  1.00  0.00     0.008 A 
ATOM     25  C   UNL     1      10.657  13.147  11.520  1.00  0.00     0.000 A 
ATOM     26  C   UNL     1      13.057  13.127  11.243  1.00  0.00     0.000 A 
ATOM     27  C   UNL     1      11.776  13.150  10.688  1.00  0.00     0.000 A 
ENDBRANCH   1  22
TORSDOF 8
ENDMDL
MODEL 4
REMARK VINA RESULT:    -7.480      2.485      5.720
REMARK INTER + INTRA:         -12.138
REMARK INTER:                 -10.915
REMARK INTRA:                  -1.222
REMARK UNBOUND:                -1.160
REMARK SMILES CCCOC(C(=O)OC1CCN(C)CC1)(c1ccccc1)c1ccccc1
REMARK SMILES IDX 5 1 4 2 3 3 2 4 1 5 6 6 7 7 8 8 9 9 10 10 15 11 11 12 14 13
REMARK SMILES IDX 12 14 13 15 16 16 17 17 21 18 18 19 20 20 19 21 22 22 23 23
REMARK SMILES IDX 27 24 24 25 26 26 25 27
REMARK H PARENT
REMARK Flexibility Score: inf
ROOT
ATOM      1  C   UNL     1      11.914  12.787  15.160  1.00  0.00     0.215 C 
ENDROOT
BRANCH   1   2
ATOM      2  O   UNL     1      10.543  12.716  15.560  1.00  0.00    -0.354 OA
BRANCH   2   3
ATOM      3  C   UNL     1      10.364  12.566  16.959  1.00  0.00     0.162 C 
BRANCH   3   4
ATOM      4  C   UNL     1       9.412  11.397  17.212  1.00  0.00     0.025 C 
ATOM      5  C   UNL     1      10.113  10.260  17.950  1.00  0.00     0.006 C 
ENDBRANCH   3   4
ENDBRANCH   2   3
ENDBRANCH   1   2
BRANCH   1   6
ATOM      6  C   UNL     1      12.573  14.025  15.744  1.00  0.00     0.348 C 
ATOM      7  O   UNL     1      11.969  15.134  15.725  1.00  0.00    -0.248 OA
BRANCH   6   8
ATOM      8  O   UNL     1      13.899  13.952  16.192  1.00  0.00    -0.460 OA
BRANCH   8   9
ATOM      9  C   UNL     1      14.421  14.742  17.259  1.00  0.00     0.179 C 
ATOM     10  C   UNL     1      15.960  14.612  17.311  1.00  0.00     0.061 C 
ATOM     11  C   UNL     1      13.756  14.291  18.575  1.00  0.00     0.061 C 
ATOM     12  C   UNL     1      16.385  13.436  18.201  1.00  0.00     0.088 C 
ATOM     13  C   UNL     1      14.714  14.438  19.762  1.00  0.00     0.088 C 
ATOM     14  N   UNL     1      15.911  13.575  19.604  1.00  0.00    -0.306 NA
ATOM     15  C   UNL     1      16.990  14.036  20.491  1.00  0.00     0.105 C 
ENDBRANCH   8   9
ENDBRANCH   6   8
ENDBRANCH   1   6
BRANCH   1  16
ATOM     16  C   UNL     1      11.970  13.006  13.643  1.00  0.00    -0.000 A 
ATOM     17  C   UNL     1      13.192  13.272  12.985  1.00  0.00     0.008 A 
ATOM     18  C   UNL     1      10.809  12.843  12.853  1.00  0.00     0.008 A 
ATOM     19  C   UNL     1      13.238  13.410  11.595  1.00  0.00     0.000 A 
ATOM     20  C   UNL     1      10.864  12.980  11.464  1.00  0.00     0.000 A 
ATOM     21  C   UNL     1      12.076  13.268  10.836  1.00  0.00     0.000 A 
ENDBRANCH   1  16
BRANCH   1  22
ATOM     22  C   UNL     1      12.641  11.471  15.518  1.00  0.00    -0.000 A 
ATOM     23  C   UNL     1      12.258  10.272  14.880  1.00  0.00     0.008 A 
ATOM     24  C   UNL     1      13.594  11.397  16.558  1.00  0.00     0.008 A 
ATOM     25  C   UNL     1      12.859   9.057  15.218  1.00  0.00     0.000 A 
ATOM     26  C   UNL     1      14.193  10.179  16.892  1.00  0.00     0.000 A 
ATOM     27  C   UNL     1      13.831   9.012  16.218  1.00  0.00     0.000 A 
ENDBRANCH   1  22
TORSDOF 8
ENDMDL
MODEL 5
REMARK VINA RESULT:    -7.459      2.950      6.441
REMARK INTER + INTRA:         -12.107
REMARK INTER:                 -10.936
REMARK INTRA:                  -1.171
REMARK UNBOUND:                -1.160
REMARK SMILES CCCOC(C(=O)OC1CCN(C)CC1)(c1ccccc1)c1ccccc1
REMARK SMILES IDX 5 1 4 2 3 3 2 4 1 5 6 6 7 7 8 8 9 9 10 10 15 11 11 12 14 13
REMARK SMILES IDX 12 14 13 15 16 16 17 17 21 18 18 19 20 20 19 21 22 22 23 23
REMARK SMILES IDX 27 24 24 25 26 26 25 27
REMARK H PARENT
REMARK Flexibility Score: inf
ROOT
ATOM      1  C   UNL     1      11.942  12.779  15.209  1.00  0.00     0.215 C 
ENDROOT
BRANCH   1   2
ATOM      2  O   UNL     1      10.572  12.690  15.607  1.00  0.00    -0.354 OA
BRANCH   2   3
ATOM      3  C   UNL     1      10.394  12.493  17.001  1.00  0.00     0.162 C 
BRANCH   3   4
ATOM      4  C   UNL     1       9.478  11.290  17.217  1.00  0.00     0.025 C 
ATOM      5  C   UNL     1      10.168  10.207  18.040  1.00  0.00     0.006 C 
ENDBRANCH   3   4
ENDBRANCH   2   3
ENDBRANCH   1   2
BRANCH   1   6
ATOM      6  C   UNL     1      12.577  14.042  15.771  1.00  0.00     0.348 C 
ATOM      7  O   UNL     1      11.881  15.083  15.932  1.00  0.00    -0.248 OA
BRANCH   6   8
ATOM      8  O   UNL     1      13.959  14.075  15.994  1.00  0.00    -0.460 OA
BRANCH   8   9
ATOM      9  C   UNL     1      14.616  15.091  16.751  1.00  0.00     0.179 C 
ATOM     10  C   UNL     1      15.181  16.175  15.804  1.00  0.00     0.061 C 
ATOM     11  C   UNL     1      15.721  14.432  17.602  1.00  0.00     0.061 C 
ATOM     12  C   UNL     1      16.606  15.826  15.354  1.00  0.00     0.088 C 
ATOM     13  C   UNL     1      16.916  15.373  17.789  1.00  0.00     0.088 C 
ATOM     14  N   UNL     1      17.556  15.703  16.491  1.00  0.00    -0.306 NA
ATOM     15  C   UNL     1      18.389  16.908  16.628  1.00  0.00     0.105 C 
ENDBRANCH   8   9
ENDBRANCH   6   8
ENDBRANCH   1   6
BRANCH   1  16
ATOM     16  C   UNL     1      11.999  12.971  13.688  1.00  0.00    -0.000 A 
ATOM     17  C   UNL     1      13.221  13.220  13.025  1.00  0.00     0.008 A 
ATOM     18  C   UNL     1      10.837  12.798  12.902  1.00  0.00     0.008 A 
ATOM     19  C   UNL     1      13.267  13.333  11.633  1.00  0.00     0.000 A 
ATOM     20  C   UNL     1      10.891  12.909  11.511  1.00  0.00     0.000 A 
ATOM     21  C   UNL     1      12.104  13.181  10.877  1.00  0.00     0.000 A 
ENDBRANCH   1  16
BRANCH   1  22
ATOM     22  C   UNL     1      12.694  11.486  15.594  1.00  0.00    -0.000 A 
ATOM     23  C   UNL     1      12.337  10.267  14.977  1.00  0.00     0.008 A 
ATOM     24  C   UNL     1      13.645  11.449  16.639  1.00  0.00     0.008 A 
ATOM     25  C   UNL     1      12.961   9.071  15.339  1.00  0.00     0.000 A 
ATOM     26  C   UNL     1      14.265  10.249  16.997  1.00  0.00     0.000 A 
ATOM     27  C   UNL     1      13.929   9.063  16.343  1.00  0.00     0.000 A 
ENDBRANCH   1  22
TORSDOF 8
ENDMDL
MODEL 6
REMARK VINA RESULT:    -7.448      1.125      4.154
REMARK INTER + INTRA:         -12.091
REMARK INTER:                 -11.355
REMARK INTRA:                  -0.736
REMARK UNBOUND:                -1.160
REMARK SMILES CCCOC(C(=O)OC1CCN(C)CC1)(c1ccccc1)c1ccccc1
REMARK SMILES IDX 5 1 4 2 3 3 2 4 1 5 6 6 7 7 8 8 9 9 10 10 15 11 11 12 14 13
REMARK SMILES IDX 12 14 13 15 16 16 17 17 21 18 18 19 20 20 19 21 22 22 23 23
REMARK SMILES IDX 27 24 24 25 26 26 25 27
REMARK H PARENT
REMARK Flexibility Score: inf
ROOT
ATOM      1  C   UNL     1      12.202  12.570  14.905  1.00  0.00     0.215 C 
ENDROOT
BRANCH   1   2
ATOM      2  O   UNL     1      12.253  12.528  13.477  1.00  0.00    -0.354 OA
BRANCH   2   3
ATOM      3  C   UNL     1      10.987  12.688  12.856  1.00  0.00     0.162 C 
BRANCH   3   4
ATOM      4  C   UNL     1      11.199  13.000  11.376  1.00  0.00     0.025 C 
ATOM      5  C   UNL     1      12.683  13.045  11.025  1.00  0.00     0.006 C 
ENDBRANCH   3   4
ENDBRANCH   2   3
ENDBRANCH   1   2
BRANCH   1   6
ATOM      6  C   UNL     1      10.773  12.782  15.379  1.00  0.00     0.348 C 
ATOM      7  O   UNL     1      10.190  13.880  15.163  1.00  0.00    -0.248 OA
BRANCH   6   8
ATOM      8  O   UNL     1      10.156  11.797  16.160  1.00  0.00    -0.460 OA
BRANCH   8   9
ATOM      9  C   UNL     1      10.121  11.821  17.586  1.00  0.00     0.179 C 
ATOM     10  C   UNL     1      10.438  10.415  18.148  1.00  0.00     0.061 C 
ATOM     11  C   UNL     1       8.735  12.324  18.036  1.00  0.00     0.061 C 
ATOM     12  C   UNL     1       9.160   9.580  18.300  1.00  0.00     0.088 C 
ATOM     13  C   UNL     1       8.307  11.674  19.356  1.00  0.00     0.088 C 
ATOM     14  N   UNL     1       8.172  10.203  19.219  1.00  0.00    -0.306 NA
ATOM     15  C   UNL     1       8.195   9.566  20.545  1.00  0.00     0.105 C 
ENDBRANCH   8   9
ENDBRANCH   6   8
ENDBRANCH   1   6
BRANCH   1  16
ATOM     16  C   UNL     1      12.950  13.821  15.384  1.00  0.00    -0.000 A 
ATOM     17  C   UNL     1      13.597  14.683  14.471  1.00  0.00     0.008 A 
ATOM     18  C   UNL     1      12.921  14.193  16.747  1.00  0.00     0.008 A 
ATOM     19  C   UNL     1      14.225  15.850  14.915  1.00  0.00     0.000 A 
ATOM     20  C   UNL     1      13.547  15.363  17.183  1.00  0.00     0.000 A 
ATOM     21  C   UNL     1      14.203  16.189  16.269  1.00  0.00     0.000 A 
ENDBRANCH   1  16
BRANCH   1  22
ATOM     22  C   UNL     1      12.871  11.311  15.499  1.00  0.00    -0.000 A 
ATOM     23  C   UNL     1      12.495  10.036  15.023  1.00  0.00     0.008 A 
ATOM     24  C   UNL     1      13.758  11.376  16.597  1.00  0.00     0.008 A 
ATOM     25  C   UNL     1      13.042   8.875  15.575  1.00  0.00     0.000 A 
ATOM     26  C   UNL     1      14.302  10.211  17.145  1.00  0.00     0.000 A 
ATOM     27  C   UNL     1      13.950   8.963  16.630  1.00  0.00     0.000 A 
ENDBRANCH   1  22
TORSDOF 8
ENDMDL
MODEL 7
REMARK VINA RESULT:    -7.411      2.020      3.255
REMARK INTER + INTRA:         -12.037
REMARK INTER:                 -11.178
REMARK INTRA:                  -0.859
REMARK UNBOUND:                -1.160
REMARK SMILES CCCOC(C(=O)OC1CCN(C)CC1)(c1ccccc1)c1ccccc1
REMARK SMILES IDX 5 1 4 2 3 3 2 4 1 5 6 6 7 7 8 8 9 9 10 10 15 11 11 12 14 13
REMARK SMILES IDX 12 14 13 15 16 16 17 17 21 18 18 19 20 20 19 21 22 22 23 23
REMARK SMILES IDX 27 24 24 25 26 26 25 27
REMARK H PARENT
REMARK Flexibility Score: inf
ROOT
ATOM      1  C   UNL     1      11.809  12.114  16.068  1.00  0.00     0.215 C 
ENDROOT
BRANCH   1   2
ATOM      2  O   UNL     1      10.844  12.983  16.668  1.00  0.00    -0.354 OA
BRANCH   2   3
ATOM      3  C   UNL     1       9.737  13.272  15.829  1.00  0.00     0.162 C 
BRANCH   3   4
ATOM      4  C   UNL     1       8.476  13.355  16.687  1.00  0.00     0.025 C 
ATOM      5  C   UNL     1       8.774  13.024  18.147  1.00  0.00     0.006 C 
ENDBRANCH   3   4
ENDBRANCH   2   3
ENDBRANCH   1   2
BRANCH   1   6
ATOM      6  C   UNL     1      11.217  10.731  15.855  1.00  0.00     0.348 C 
ATOM      7  O   UNL     1      11.406  10.121  14.765  1.00  0.00    -0.248 OA
BRANCH   6   8
ATOM      8  O   UNL     1      10.364  10.191  16.826  1.00  0.00    -0.460 OA
BRANCH   8   9
ATOM      9  C   UNL     1      10.601   8.950  17.489  1.00  0.00     0.179 C 
ATOM     10  C   UNL     1      10.580   9.155  19.021  1.00  0.00     0.061 C 
ATOM     11  C   UNL     1      11.948   8.381  16.999  1.00  0.00     0.061 C 
ATOM     12  C   UNL     1      11.976   9.510  19.550  1.00  0.00     0.088 C 
ATOM     13  C   UNL     1      12.655   7.591  18.106  1.00  0.00     0.088 C 
ATOM     14  N   UNL     1      12.985   8.456  19.265  1.00  0.00    -0.306 NA
ATOM     15  C   UNL     1      13.250   7.631  20.455  1.00  0.00     0.105 C 
ENDBRANCH   8   9
ENDBRANCH   6   8
ENDBRANCH   1   6
BRANCH   1  16
ATOM     16  C   UNL     1      12.952  11.889  17.066  1.00  0.00    -0.000 A 
ATOM     17  C   UNL     1      14.015  11.005  16.776  1.00  0.00     0.008 A 
ATOM     18  C   UNL     1      13.018  12.642  18.261  1.00  0.00     0.008 A 
ATOM     19  C   UNL     1      15.080  10.854  17.668  1.00  0.00     0.000 A 
ATOM     20  C   UNL     1      14.088  12.488  19.145  1.00  0.00     0.000 A 
ATOM     21  C   UNL     1      15.115  11.591  18.852  1.00  0.00     0.000 A 
ENDBRANCH   1  16
BRANCH   1  22
ATOM     22  C   UNL     1      12.370  12.753  14.779  1.00  0.00    -0.000 A 
ATOM     23  C   UNL     1      13.073  13.975  14.859  1.00  0.00     0.008 A 
ATOM     24  C   UNL     1      12.096  12.225  13.496  1.00  0.00     0.008 A 
ATOM     25  C   UNL     1      13.548  14.605  13.706  1.00  0.00     0.000 A 
ATOM     26  C   UNL     1      12.575  12.861  12.347  1.00  0.00     0.000 A 
ATOM     27  C   UNL     1      13.306  14.045  12.452  1.00  0.00     0.000 A 
ENDBRANCH   1  22
TORSDOF 8
ENDMDL
MODEL 8
REMARK VINA RESULT:    -7.411      2.779      6.657
REMARK INTER + INTRA:         -12.036
REMARK INTER:                 -10.835
REMARK INTRA:                  -1.201
REMARK UNBOUND:                -1.160
REMARK SMILES CCCOC(C(=O)OC1CCN(C)CC1)(c1ccccc1)c1ccccc1
REMARK SMILES IDX 5 1 4 2 3 3 2 4 1 5 6 6 7 7 8 8 9 9 10 10 15 11 11 12 14 13
REMARK SMILES IDX 12 14 13 15 16 16 17 17 21 18 18 19 20 20 19 21 22 22 23 23
REMARK SMILES IDX 27 24 24 25 26 26 25 27
REMARK H PARENT
REMARK Flexibility Score: inf
ROOT
ATOM      1  C   UNL     1      11.635  12.660  15.256  1.00  0.00     0.215 C 
ENDROOT
BRANCH   1   2
ATOM      2  O   UNL     1      10.285  12.439  15.674  1.00  0.00    -0.354 OA
BRANCH   2   3
ATOM      3  C   UNL     1      10.137  12.313  17.079  1.00  0.00     0.162 C 
BRANCH   3   4
ATOM      4  C   UNL     1       9.138  11.194  17.371  1.00  0.00     0.025 C 
ATOM      5  C   UNL     1       9.848   9.908  17.783  1.00  0.00     0.006 C 
ENDBRANCH   3   4
ENDBRANCH   2   3
ENDBRANCH   1   2
BRANCH   1   6
ATOM      6  C   UNL     1      12.167  13.958  15.841  1.00  0.00     0.348 C 
ATOM      7  O   UNL     1      11.366  14.838  16.263  1.00  0.00    -0.248 OA
BRANCH   6   8
ATOM      8  O   UNL     1      13.542  14.218  15.798  1.00  0.00    -0.460 OA
BRANCH   8   9
ATOM      9  C   UNL     1      14.101  15.531  15.774  1.00  0.00     0.179 C 
ATOM     10  C   UNL     1      13.927  16.156  14.371  1.00  0.00     0.061 C 
ATOM     11  C   UNL     1      15.583  15.442  16.189  1.00  0.00     0.061 C 
ATOM     12  C   UNL     1      15.118  15.817  13.464  1.00  0.00     0.088 C 
ATOM     13  C   UNL     1      16.426  16.504  15.475  1.00  0.00     0.088 C 
ATOM     14  N   UNL     1      16.412  16.312  14.004  1.00  0.00    -0.306 NA
ATOM     15  C   UNL     1      16.839  17.546  13.327  1.00  0.00     0.105 C 
ENDBRANCH   8   9
ENDBRANCH   6   8
ENDBRANCH   1   6
BRANCH   1  16
ATOM     16  C   UNL     1      11.645  12.894  13.740  1.00  0.00    -0.000 A 
ATOM     17  C   UNL     1      10.480  13.299  13.052  1.00  0.00     0.008 A 
ATOM     18  C   UNL     1      12.854  12.809  13.011  1.00  0.00     0.008 A 
ATOM     19  C   UNL     1      10.517  13.566  11.681  1.00  0.00     0.000 A 
ATOM     20  C   UNL     1      12.884  13.081  11.642  1.00  0.00     0.000 A 
ATOM     21  C   UNL     1      11.716  13.455  10.976  1.00  0.00     0.000 A 
ENDBRANCH   1  16
BRANCH   1  22
ATOM     22  C   UNL     1      12.504  11.427  15.592  1.00  0.00    -0.000 A 
ATOM     23  C   UNL     1      12.200  10.182  15.000  1.00  0.00     0.008 A 
ATOM     24  C   UNL     1      13.519  11.468  16.574  1.00  0.00     0.008 A 
ATOM     25  C   UNL     1      12.934   9.038  15.323  1.00  0.00     0.000 A 
ATOM     26  C   UNL     1      14.250  10.319  16.892  1.00  0.00     0.000 A 
ATOM     27  C   UNL     1      13.962   9.108  16.262  1.00  0.00     0.000 A 
ENDBRANCH   1  22
TORSDOF 8
ENDMDL
MODEL 9
REMARK VINA RESULT:    -7.305      2.489      5.717
REMARK INTER + INTRA:         -11.880
REMARK INTER:                 -10.709
REMARK INTRA:                  -1.172
REMARK UNBOUND:                -1.160
REMARK SMILES CCCOC(C(=O)OC1CCN(C)CC1)(c1ccccc1)c1ccccc1
REMARK SMILES IDX 5 1 4 2 3 3 2 4 1 5 6 6 7 7 8 8 9 9 10 10 15 11 11 12 14 13
REMARK SMILES IDX 12 14 13 15 16 16 17 17 21 18 18 19 20 20 19 21 22 22 23 23
REMARK SMILES IDX 27 24 24 25 26 26 25 27
REMARK H PARENT
REMARK Flexibility Score: inf
ROOT
ATOM      1  C   UNL     1      11.499  10.675  16.488  1.00  0.00     0.215 C 
ENDROOT
BRANCH   1   2
ATOM      2  O   UNL     1      11.427   9.447  15.760  1.00  0.00    -0.354 OA
BRANCH   2   3
ATOM      3  C   UNL     1      12.396   8.490  16.156  1.00  0.00     0.162 C 
BRANCH   3   4
ATOM      4  C   UNL     1      11.678   7.234  16.646  1.00  0.00     0.025 C 
ATOM      5  C   UNL     1      11.688   7.147  18.169  1.00  0.00     0.006 C 
ENDBRANCH   3   4
ENDBRANCH   2   3
ENDBRANCH   1   2
BRANCH   1   6
ATOM      6  C   UNL     1      10.206  10.917  17.250  1.00  0.00     0.348 C 
ATOM      7  O   UNL     1       9.314  10.024  17.286  1.00  0.00    -0.248 OA
BRANCH   6   8
ATOM      8  O   UNL     1       9.964  12.179  17.808  1.00  0.00    -0.460 OA
BRANCH   8   9
ATOM      9  C   UNL     1       8.701  12.840  17.756  1.00  0.00     0.179 C 
ATOM     10  C   UNL     1       8.517  13.525  16.382  1.00  0.00     0.061 C 
ATOM     11  C   UNL     1       8.626  13.849  18.920  1.00  0.00     0.061 C 
ATOM     12  C   UNL     1       9.074  14.955  16.399  1.00  0.00     0.088 C 
ATOM     13  C   UNL     1       7.795  15.079  18.539  1.00  0.00     0.088 C 
ATOM     14  N   UNL     1       8.408  15.819  17.409  1.00  0.00    -0.306 NA
ATOM     15  C   UNL     1       7.415  16.707  16.785  1.00  0.00     0.105 C 
ENDBRANCH   8   9
ENDBRANCH   6   8
ENDBRANCH   1   6
BRANCH   1  16
ATOM     16  C   UNL     1      11.573  11.834  15.487  1.00  0.00    -0.000 A 
ATOM     17  C   UNL     1      12.273  13.023  15.791  1.00  0.00     0.008 A 
ATOM     18  C   UNL     1      11.026  11.696  14.191  1.00  0.00     0.008 A 
ATOM     19  C   UNL     1      12.383  14.048  14.847  1.00  0.00     0.000 A 
ATOM     20  C   UNL     1      11.142  12.723  13.252  1.00  0.00     0.000 A 
ATOM     21  C   UNL     1      11.816  13.900  13.581  1.00  0.00     0.000 A 
ENDBRANCH   1  16
BRANCH   1  22
ATOM     22  C   UNL     1      12.757  10.688  17.385  1.00  0.00    -0.000 A 
ATOM     23  C   UNL     1      12.610  10.619  18.787  1.00  0.00     0.008 A 
ATOM     24  C   UNL     1      14.053  10.897  16.860  1.00  0.00     0.008 A 
ATOM     25  C   UNL     1      13.724  10.681  19.628  1.00  0.00     0.000 A 
ATOM     26  C   UNL     1      15.164  10.958  17.707  1.00  0.00     0.000 A 
ATOM     27  C   UNL     1      15.000  10.843  19.088  1.00  0.00     0.000 A 
ENDBRANCH   1  22
TORSDOF 8
ENDMDL
MODEL 10
REMARK VINA RESULT:    -7.282      2.856      6.745
REMARK INTER + INTRA:         -11.847
REMARK INTER:                 -11.108
REMARK INTRA:                  -0.739
REMARK UNBOUND:                -1.160
REMARK SMILES CCCOC(C(=O)OC1CCN(C)CC1)(c1ccccc1)c1ccccc1
REMARK SMILES IDX 5 1 4 2 3 3 2 4 1 5 6 6 7 7 8 8 9 9 10 10 15 11 11 12 14 13
REMARK SMILES IDX 12 14 13 15 16 16 17 17 21 18 18 19 20 20 19 21 22 22 23 23
REMARK SMILES IDX 27 24 24 25 26 26 25 27
REMARK H PARENT
REMARK Flexibility Score: inf
ROOT
ATOM      1  C   UNL     1      11.566  10.017  19.277  1.00  0.00     0.215 C 
ENDROOT
BRANCH   1   2
ATOM      2  O   UNL     1      10.247   9.466  19.324  1.00  0.00    -0.354 OA
BRANCH   2   3
ATOM      3  C   UNL     1       9.372  10.154  20.203  1.00  0.00     0.162 C 
BRANCH   3   4
ATOM      4  C   UNL     1       7.972  10.170  19.592  1.00  0.00     0.025 C 
ATOM      5  C   UNL     1       8.030  10.150  18.067  1.00  0.00     0.006 C 
ENDBRANCH   3   4
ENDBRANCH   2   3
ENDBRANCH   1   2
BRANCH   1   6
ATOM      6  C   UNL     1      11.506  11.536  19.267  1.00  0.00     0.348 C 
ATOM      7  O   UNL     1      12.130  12.201  20.139  1.00  0.00    -0.248 OA
BRANCH   6   8
ATOM      8  O   UNL     1      10.659  12.184  18.358  1.00  0.00    -0.460 OA
BRANCH   8   9
ATOM      9  C   UNL     1      11.101  13.172  17.429  1.00  0.00     0.179 C 
ATOM     10  C   UNL     1      10.384  12.982  16.072  1.00  0.00     0.061 C 
ATOM     11  C   UNL     1      12.634  13.069  17.293  1.00  0.00     0.061 C 
ATOM     12  C   UNL     1      11.165  12.023  15.164  1.00  0.00     0.088 C 
ATOM     13  C   UNL     1      13.094  13.437  15.878  1.00  0.00     0.088 C 
ATOM     14  N   UNL     1      12.540  12.504  14.866  1.00  0.00    -0.306 NA
ATOM     15  C   UNL     1      12.621  13.104  13.525  1.00  0.00     0.105 C 
ENDBRANCH   8   9
ENDBRANCH   6   8
ENDBRANCH   1   6
BRANCH   1  16
ATOM     16  C   UNL     1      12.201   9.653  17.929  1.00  0.00    -0.000 A 
ATOM     17  C   UNL     1      13.549   9.965  17.645  1.00  0.00     0.008 A 
ATOM     18  C   UNL     1      11.476   8.901  16.976  1.00  0.00     0.008 A 
ATOM     19  C   UNL     1      14.132   9.575  16.436  1.00  0.00     0.000 A 
ATOM     20  C   UNL     1      12.066   8.512  15.772  1.00  0.00     0.000 A 
ATOM     21  C   UNL     1      13.392   8.852  15.500  1.00  0.00     0.000 A 
ENDBRANCH   1  16
BRANCH   1  22
ATOM     22  C   UNL     1      12.425   9.439  20.423  1.00  0.00    -0.000 A 
ATOM     23  C   UNL     1      13.097   8.212  20.236  1.00  0.00     0.008 A 
ATOM     24  C   UNL     1      12.463  10.030  21.707  1.00  0.00     0.008 A 
ATOM     25  C   UNL     1      13.840   7.637  21.270  1.00  0.00     0.000 A 
ATOM     26  C   UNL     1      13.208   9.449  22.737  1.00  0.00     0.000 A 
ATOM     27  C   UNL     1      13.902   8.258  22.517  1.00  0.00     0.000 A 
ENDBRANCH   1  22
TORSDOF 8
ENDMDL
MODEL 11
REMARK VINA RESULT:    -7.265      2.484      3.437
REMARK INTER + INTRA:         -11.823
REMARK INTER:                 -10.871
REMARK INTRA:                  -0.951
REMARK UNBOUND:                -1.160
REMARK SMILES CCCOC(C(=O)OC1CCN(C)CC1)(c1ccccc1)c1ccccc1
REMARK SMILES IDX 5 1 4 2 3 3 2 4 1 5 6 6 7 7 8 8 9 9 10 10 15 11 11 12 14 13
REMARK SMILES IDX 12 14 13 15 16 16 17 17 21 18 18 19 20 20 19 21 22 22 23 23
REMARK SMILES IDX 27 24 24 25 26 26 25 27
REMARK H PARENT
REMARK Flexibility Score: inf
ROOT
ATOM      1  C   UNL     1      11.989  12.811  15.181  1.00  0.00     0.215 C 
ENDROOT
BRANCH   1   2
ATOM      2  O   UNL     1      12.754  13.868  15.766  1.00  0.00    -0.354 OA
BRANCH   2   3
ATOM      3  C   UNL     1      11.981  15.006  16.113  1.00  0.00     0.162 C 
BRANCH   3   4
ATOM      4  C   UNL     1      12.401  16.177  15.227  1.00  0.00     0.025 C 
ATOM      5  C   UNL     1      11.319  16.520  14.208  1.00  0.00     0.006 C 
ENDBRANCH   3   4
ENDBRANCH   2   3
ENDBRANCH   1   2
BRANCH   1   6
ATOM      6  C   UNL     1      10.593  12.772  15.781  1.00  0.00     0.348 C 
ATOM      7  O   UNL     1      10.261  11.831  16.555  1.00  0.00    -0.248 OA
BRANCH   6   8
ATOM      8  O   UNL     1       9.644  13.719  15.375  1.00  0.00    -0.460 OA
BRANCH   8   9
ATOM      9  C   UNL     1       8.362  13.869  15.985  1.00  0.00     0.179 C 
ATOM     10  C   UNL     1       7.371  14.507  14.984  1.00  0.00     0.061 C 
ATOM     11  C   UNL     1       8.523  14.718  17.262  1.00  0.00     0.061 C 
ATOM     12  C   UNL     1       7.405  16.039  15.074  1.00  0.00     0.088 C 
ATOM     13  C   UNL     1       7.278  15.574  17.522  1.00  0.00     0.088 C 
ATOM     14  N   UNL     1       7.046  16.544  16.425  1.00  0.00    -0.306 NA
ATOM     15  C   UNL     1       5.659  17.034  16.464  1.00  0.00     0.105 C 
ENDBRANCH   8   9
ENDBRANCH   6   8
ENDBRANCH   1   6
BRANCH   1  16
ATOM     16  C   UNL     1      12.615  11.471  15.589  1.00  0.00    -0.000 A 
ATOM     17  C   UNL     1      12.270  10.270  14.931  1.00  0.00     0.008 A 
ATOM     18  C   UNL     1      13.632  11.426  16.569  1.00  0.00     0.008 A 
ATOM     19  C   UNL     1      12.891   9.065  15.272  1.00  0.00     0.000 A 
ATOM     20  C   UNL     1      14.252  10.219  16.902  1.00  0.00     0.000 A 
ATOM     21  C   UNL     1      13.878   9.039  16.258  1.00  0.00     0.000 A 
ENDBRANCH   1  16
BRANCH   1  22
ATOM     22  C   UNL     1      11.997  12.936  13.642  1.00  0.00    -0.000 A 
ATOM     23  C   UNL     1      13.191  13.301  12.982  1.00  0.00     0.008 A 
ATOM     24  C   UNL     1      10.818  12.823  12.871  1.00  0.00     0.008 A 
ATOM     25  C   UNL     1      13.220  13.473  11.596  1.00  0.00     0.000 A 
ATOM     26  C   UNL     1      10.854  12.997  11.484  1.00  0.00     0.000 A 
ATOM     27  C   UNL     1      12.054  13.314  10.847  1.00  0.00     0.000 A 
ENDBRANCH   1  22
TORSDOF 8
ENDMDL
MODEL 12
REMARK VINA RESULT:    -7.253      2.655      6.508
REMARK INTER + INTRA:         -11.804
REMARK INTER:                 -10.829
REMARK INTRA:                  -0.976
REMARK UNBOUND:                -1.160
REMARK SMILES CCCOC(C(=O)OC1CCN(C)CC1)(c1ccccc1)c1ccccc1
REMARK SMILES IDX 5 1 4 2 3 3 2 4 1 5 6 6 7 7 8 8 9 9 10 10 15 11 11 12 14 13
REMARK SMILES IDX 12 14 13 15 16 16 17 17 21 18 18 19 20 20 19 21 22 22 23 23
REMARK SMILES IDX 27 24 24 25 26 26 25 27
REMARK H PARENT
REMARK Flexibility Score: inf
ROOT
ATOM      1  C   UNL     1      12.389   9.801  17.160  1.00  0.00     0.215 C 
ENDROOT
BRANCH   1   2
ATOM      2  O   UNL     1      13.026   8.559  17.469  1.00  0.00    -0.354 OA
BRANCH   2   3
ATOM      3  C   UNL     1      12.491   7.912  18.613  1.00  0.00     0.162 C 
BRANCH   3   4
ATOM      4  C   UNL     1      13.642   7.482  19.520  1.00  0.00     0.025 C 
ATOM      5  C   UNL     1      14.041   8.600  20.479  1.00  0.00     0.006 C 
ENDBRANCH   3   4
ENDBRANCH   2   3
ENDBRANCH   1   2
BRANCH   1   6
ATOM      6  C   UNL     1      12.174   9.929  15.661  1.00  0.00     0.348 C 
ATOM      7  O   UNL     1      11.883   8.912  14.973  1.00  0.00    -0.248 OA
BRANCH   6   8
ATOM      8  O   UNL     1      12.419  11.158  15.034  1.00  0.00    -0.460 OA
BRANCH   8   9
ATOM      9  C   UNL     1      11.487  11.808  14.171  1.00  0.00     0.179 C 
ATOM     10  C   UNL     1      12.240  12.641  13.109  1.00  0.00     0.061 C 
ATOM     11  C   UNL     1      10.548  12.679  15.031  1.00  0.00     0.061 C 
ATOM     12  C   UNL     1      12.509  14.066  13.612  1.00  0.00     0.088 C 
ATOM     13  C   UNL     1      10.106  13.936  14.274  1.00  0.00     0.088 C 
ATOM     14  N   UNL     1      11.261  14.805  13.941  1.00  0.00    -0.306 NA
ATOM     15  C   UNL     1      10.897  15.747  12.872  1.00  0.00     0.105 C 
ENDBRANCH   8   9
ENDBRANCH   6   8
ENDBRANCH   1   6
BRANCH   1  16
ATOM     16  C   UNL     1      13.353  10.945  17.504  1.00  0.00    -0.000 A 
ATOM     17  C   UNL     1      12.874  12.217  17.886  1.00  0.00     0.008 A 
ATOM     18  C   UNL     1      14.747  10.716  17.546  1.00  0.00     0.008 A 
ATOM     19  C   UNL     1      13.762  13.232  18.254  1.00  0.00     0.000 A 
ATOM     20  C   UNL     1      15.628  11.734  17.918  1.00  0.00     0.000 A 
ATOM     21  C   UNL     1      15.136  12.993  18.268  1.00  0.00     0.000 A 
ENDBRANCH   1  16
BRANCH   1  22
ATOM     22  C   UNL     1      11.093   9.955  17.986  1.00  0.00    -0.000 A 
ATOM     23  C   UNL     1       9.844   9.932  17.328  1.00  0.00     0.008 A 
ATOM     24  C   UNL     1      11.112  10.248  19.369  1.00  0.00     0.008 A 
ATOM     25  C   UNL     1       8.657  10.120  18.039  1.00  0.00     0.000 A 
ATOM     26  C   UNL     1       9.920  10.435  20.074  1.00  0.00     0.000 A 
ATOM     27  C   UNL     1       8.693  10.364  19.412  1.00  0.00     0.000 A 
ENDBRANCH   1  22
TORSDOF 8
ENDMDL
MODEL 13
REMARK VINA RESULT:    -7.218      3.006      5.147
REMARK INTER + INTRA:         -11.753
REMARK INTER:                 -11.070
REMARK INTRA:                  -0.683
REMARK UNBOUND:                -1.160
REMARK SMILES CCCOC(C(=O)OC1CCN(C)CC1)(c1ccccc1)c1ccccc1
REMARK SMILES IDX 5 1 4 2 3 3 2 4 1 5 6 6 7 7 8 8 9 9 10 10 15 11 11 12 14 13
REMARK SMILES IDX 12 14 13 15 16 16 17 17 21 18 18 19 20 20 19 21 22 22 23 23
REMARK SMILES IDX 27 24 24 25 26 26 25 27
REMARK H PARENT
REMARK Flexibility Score: inf
ROOT
ATOM      1  C   UNL     1      14.504  12.143  18.454  1.00  0.00     0.215 C 
ENDROOT
BRANCH   1   2
ATOM      2  O   UNL     1      14.819  11.373  19.616  1.00  0.00    -0.354 OA
BRANCH   2   3
ATOM      3  C   UNL     1      14.361  11.954  20.827  1.00  0.00     0.162 C 
BRANCH   3   4
ATOM      4  C   UNL     1      13.653  10.880  21.652  1.00  0.00     0.025 C 
ATOM      5  C   UNL     1      13.975   9.481  21.137  1.00  0.00     0.006 C 
ENDBRANCH   3   4
ENDBRANCH   2   3
ENDBRANCH   1   2
BRANCH   1   6
ATOM      6  C   UNL     1      13.275  13.003  18.704  1.00  0.00     0.348 C 
ATOM      7  O   UNL     1      13.381  14.095  19.329  1.00  0.00    -0.248 OA
BRANCH   6   8
ATOM      8  O   UNL     1      12.012  12.517  18.342  1.00  0.00    -0.460 OA
BRANCH   8   9
ATOM      9  C   UNL     1      11.018  12.114  19.283  1.00  0.00     0.179 C 
ATOM     10  C   UNL     1      10.701  10.610  19.108  1.00  0.00     0.061 C 
ATOM     11  C   UNL     1       9.768  12.995  19.085  1.00  0.00     0.061 C 
ATOM     12  C   UNL     1       9.577  10.398  18.085  1.00  0.00     0.088 C 
ATOM     13  C   UNL     1       8.484  12.219  19.396  1.00  0.00     0.088 C 
ATOM     14  N   UNL     1       8.309  11.067  18.477  1.00  0.00    -0.306 NA
ATOM     15  C   UNL     1       7.348  10.108  19.043  1.00  0.00     0.105 C 
ENDBRANCH   8   9
ENDBRANCH   6   8
ENDBRANCH   1   6
BRANCH   1  16
ATOM     16  C   UNL     1      14.076  11.186  17.334  1.00  0.00    -0.000 A 
ATOM     17  C   UNL     1      14.375   9.807  17.394  1.00  0.00     0.008 A 
ATOM     18  C   UNL     1      13.281  11.650  16.261  1.00  0.00     0.008 A 
ATOM     19  C   UNL     1      13.928   8.937  16.396  1.00  0.00     0.000 A 
ATOM     20  C   UNL     1      12.835  10.774  15.270  1.00  0.00     0.000 A 
ATOM     21  C   UNL     1      13.162   9.419  15.334  1.00  0.00     0.000 A 
ENDBRANCH   1  16
BRANCH   1  22
ATOM     22  C   UNL     1      15.740  12.950  17.998  1.00  0.00    -0.000 A 
ATOM     23  C   UNL     1      17.030  12.503  18.358  1.00  0.00     0.008 A 
ATOM     24  C   UNL     1      15.626  14.195  17.340  1.00  0.00     0.008 A 
ATOM     25  C   UNL     1      18.166  13.237  18.006  1.00  0.00     0.000 A 
ATOM     26  C   UNL     1      16.766  14.924  16.991  1.00  0.00     0.000 A 
ATOM     27  C   UNL     1      18.035  14.442  17.317  1.00  0.00     0.000 A 
ENDBRANCH   1  22
TORSDOF 8
ENDMDL
MODEL 14
REMARK VINA RESULT:    -7.159      3.443      5.197
REMARK INTER + INTRA:         -11.667
REMARK INTER:                 -10.983
REMARK INTRA:                  -0.684
REMARK UNBOUND:                -1.160
REMARK SMILES CCCOC(C(=O)OC1CCN(C)CC1)(c1ccccc1)c1ccccc1
REMARK SMILES IDX 5 1 4 2 3 3 2 4 1 5 6 6 7 7 8 8 9 9 10 10 15 11 11 12 14 13
REMARK SMILES IDX 12 14 13 15 16 16 17 17 21 18 18 19 20 20 19 21 22 22 23 23
REMARK SMILES IDX 27 24 24 25 26 26 25 27
REMARK H PARENT
REMARK Flexibility Score: inf
ROOT
ATOM      1  C   UNL     1      12.540  10.776  18.992  1.00  0.00     0.215 C 
ENDROOT
BRANCH   1   2
ATOM      2  O   UNL     1      13.300  11.982  19.095  1.00  0.00    -0.354 OA
BRANCH   2   3
ATOM      3  C   UNL     1      13.553  12.606  17.846  1.00  0.00     0.162 C 
BRANCH   3   4
ATOM      4  C   UNL     1      14.994  13.113  17.831  1.00  0.00     0.025 C 
ATOM      5  C   UNL     1      15.964  12.047  18.330  1.00  0.00     0.006 C 
ENDBRANCH   3   4
ENDBRANCH   2   3
ENDBRANCH   1   2
BRANCH   1   6
ATOM      6  C   UNL     1      11.102  11.015  19.424  1.00  0.00     0.348 C 
ATOM      7  O   UNL     1      10.359  10.039  19.722  1.00  0.00    -0.248 OA
BRANCH   6   8
ATOM      8  O   UNL     1      10.577  12.313  19.373  1.00  0.00    -0.460 OA
BRANCH   8   9
ATOM      9  C   UNL     1       9.234  12.610  18.990  1.00  0.00     0.179 C 
ATOM     10  C   UNL     1       8.997  12.194  17.520  1.00  0.00     0.061 C 
ATOM     11  C   UNL     1       8.982  14.115  19.214  1.00  0.00     0.061 C 
ATOM     12  C   UNL     1       9.345  13.339  16.559  1.00  0.00     0.088 C 
ATOM     13  C   UNL     1       7.998  14.675  18.181  1.00  0.00     0.088 C 
ATOM     14  N   UNL     1       8.534  14.561  16.802  1.00  0.00    -0.306 NA
ATOM     15  C   UNL     1       7.444  14.685  15.822  1.00  0.00     0.105 C 
ENDBRANCH   8   9
ENDBRANCH   6   8
ENDBRANCH   1   6
BRANCH   1  16
ATOM     16  C   UNL     1      13.080   9.768  20.014  1.00  0.00    -0.000 A 
ATOM     17  C   UNL     1      13.005   8.376  19.783  1.00  0.00     0.008 A 
ATOM     18  C   UNL     1      13.761  10.216  21.169  1.00  0.00     0.008 A 
ATOM     19  C   UNL     1      13.554   7.471  20.695  1.00  0.00     0.000 A 
ATOM     20  C   UNL     1      14.311   9.305  22.074  1.00  0.00     0.000 A 
ATOM     21  C   UNL     1      14.204   7.934  21.840  1.00  0.00     0.000 A 
ENDBRANCH   1  16
BRANCH   1  22
ATOM     22  C   UNL     1      12.668  10.186  17.570  1.00  0.00    -0.000 A 
ATOM     23  C   UNL     1      11.572  10.267  16.684  1.00  0.00     0.008 A 
ATOM     24  C   UNL     1      13.803   9.449  17.161  1.00  0.00     0.008 A 
ATOM     25  C   UNL     1      11.638   9.697  15.410  1.00  0.00     0.000 A 
ATOM     26  C   UNL     1      13.862   8.881  15.885  1.00  0.00     0.000 A 
ATOM     27  C   UNL     1      12.784   9.012  15.008  1.00  0.00     0.000 A 
ENDBRANCH   1  22
TORSDOF 8
ENDMDL
MODEL 15
REMARK VINA RESULT:    -7.088      2.797      5.974
REMARK INTER + INTRA:         -11.563
REMARK INTER:                 -10.497
REMARK INTRA:                  -1.066
REMARK UNBOUND:                -1.160
REMARK SMILES CCCOC(C(=O)OC1CCN(C)CC1)(c1ccccc1)c1ccccc1
REMARK SMILES IDX 5 1 4 2 3 3 2 4 1 5 6 6 7 7 8 8 9 9 10 10 15 11 11 12 14 13
REMARK SMILES IDX 12 14 13 15 16 16 17 17 21 18 18 19 20 20 19 21 22 22 23 23
REMARK SMILES IDX 27 24 24 25 26 26 25 27
REMARK H PARENT
REMARK Flexibility Score: inf
ROOT
ATOM      1  C   UNL     1      12.636  10.606  17.829  1.00  0.00     0.215 C 
ENDROOT
BRANCH   1   2
ATOM      2  O   UNL     1      12.814   9.194  17.685  1.00  0.00    -0.354 OA
BRANCH   2   3
ATOM      3  C   UNL     1      13.852   8.665  18.495  1.00  0.00     0.162 C 
BRANCH   3   4
ATOM      4  C   UNL     1      13.268   7.581  19.399  1.00  0.00     0.025 C 
ATOM      5  C   UNL     1      13.942   7.577  20.768  1.00  0.00     0.006 C 
ENDBRANCH   3   4
ENDBRANCH   2   3
ENDBRANCH   1   2
BRANCH   1   6
ATOM      6  C   UNL     1      11.346  10.905  18.575  1.00  0.00     0.348 C 
ATOM      7  O   UNL     1      10.694   9.969  19.115  1.00  0.00    -0.248 OA
BRANCH   6   8
ATOM      8  O   UNL     1      10.827  12.206  18.554  1.00  0.00    -0.460 OA
BRANCH   8   9
ATOM      9  C   UNL     1       9.436  12.503  18.430  1.00  0.00     0.179 C 
ATOM     10  C   UNL     1       9.009  12.432  16.946  1.00  0.00     0.061 C 
ATOM     11  C   UNL     1       9.176  13.895  19.041  1.00  0.00     0.061 C 
ATOM     12  C   UNL     1       9.187  13.790  16.254  1.00  0.00     0.088 C 
ATOM     13  C   UNL     1       8.042  14.621  18.309  1.00  0.00     0.088 C 
ATOM     14  N   UNL     1       8.384  14.868  16.887  1.00  0.00    -0.306 NA
ATOM     15  C   UNL     1       7.165  15.154  16.114  1.00  0.00     0.105 C 
ENDBRANCH   8   9
ENDBRANCH   6   8
ENDBRANCH   1   6
BRANCH   1  16
ATOM     16  C   UNL     1      12.421  11.216  16.438  1.00  0.00    -0.000 A 
ATOM     17  C   UNL     1      11.658  10.548  15.454  1.00  0.00     0.008 A 
ATOM     18  C   UNL     1      12.898  12.514  16.144  1.00  0.00     0.008 A 
ATOM     19  C   UNL     1      11.420  11.142  14.211  1.00  0.00     0.000 A 
ATOM     20  C   UNL     1      12.654  13.102  14.901  1.00  0.00     0.000 A 
ATOM     21  C   UNL     1      11.919  12.415  13.934  1.00  0.00     0.000 A 
ENDBRANCH   1  16
BRANCH   1  22
ATOM     22  C   UNL     1      13.888  11.236  18.479  1.00  0.00    -0.000 A 
ATOM     23  C   UNL     1      13.805  11.743  19.794  1.00  0.00     0.008 A 
ATOM     24  C   UNL     1      15.087  11.443  17.760  1.00  0.00     0.008 A 
ATOM     25  C   UNL     1      14.903  12.366  20.392  1.00  0.00     0.000 A 
ATOM     26  C   UNL     1      16.182  12.067  18.364  1.00  0.00     0.000 A 
ATOM     27  C   UNL     1      16.093  12.522  19.680  1.00  0.00     0.000 A 
ENDBRANCH   1  22
TORSDOF 8
ENDMDL
