MODEL 1
REMARK VINA RESULT:    -9.803      0.000      0.000
REMARK INTER + INTRA:         -15.365
REMARK INTER:                 -14.387
REMARK INTRA:                  -0.978
REMARK UNBOUND:                -0.978
REMARK SMILES CC(C)(C)c1cc(NC(=O)Nc2ccc(-c3cn4c(n3)sc3cc(OCCN5CCOCC5)ccc34)cc2)no1
REMARK SMILES IDX 16 1 17 2 18 3 19 4 21 5 22 6 36 7 35 8 34 9 24 10 23 11
REMARK SMILES IDX 20 12 15 13 12 14 13 15 38 16 14 17 37 18 11 19 8 20 9 21
REMARK SMILES IDX 10 23 7 25 5 26 6 27 40 28 39 29 2 30 1 31 3 32 4 33 25 34
REMARK SMILES IDX 26 35 27 36 28 37 29 38 33 39 30 40 32 41 31 42
REMARK H PARENT 8 22 11 24
REMARK Flexibility Score: inf
ROOT
ATOM      1  C   UNL     1      17.543  35.446  15.678  1.00  0.00     0.090 A 
ATOM      2  C   UNL     1      18.491  34.968  14.764  1.00  0.00     0.123 A 
ATOM      3  N   UNL     1      17.782  34.398  13.786  1.00  0.00    -0.290 N 
ATOM      4  C   UNL     1      16.507  34.534  14.093  1.00  0.00     0.195 A 
ATOM      5  S   UNL     1      15.462  33.839  12.960  1.00  0.00    -0.096 S 
ATOM      6  C   UNL     1      16.807  33.334  12.027  1.00  0.00     0.058 A 
ATOM      7  C   UNL     1      17.999  33.736  12.631  1.00  0.00     0.065 A 
ATOM      8  C   UNL     1      19.231  33.458  12.048  1.00  0.00     0.032 A 
ATOM      9  C   UNL     1      19.248  32.746  10.836  1.00  0.00     0.048 A 
ATOM     10  C   UNL     1      18.039  32.313  10.232  1.00  0.00     0.120 A 
ATOM     11  C   UNL     1      16.806  32.612  10.838  1.00  0.00     0.067 A 
ATOM     12  N   UNL     1      16.274  35.179  15.246  1.00  0.00    -0.219 NA
ENDROOT
BRANCH   1  13
ATOM     13  C   UNL     1      17.828  36.108  16.971  1.00  0.00     0.002 A 
ATOM     14  C   UNL     1      18.394  37.187  19.519  1.00  0.00     0.042 A 
ATOM     15  C   UNL     1      17.117  36.671  19.231  1.00  0.00     0.027 A 
ATOM     16  C   UNL     1      19.360  37.225  18.503  1.00  0.00     0.027 A 
ATOM     17  C   UNL     1      16.843  36.128  17.974  1.00  0.00     0.012 A 
ATOM     18  C   UNL     1      19.084  36.685  17.241  1.00  0.00     0.012 A 
BRANCH  14  19
ATOM     19  N   UNL     1      18.711  37.710  20.822  1.00  0.00    -0.308 N 
ATOM     20  N   UNL     1      18.845  39.524  22.516  1.00  0.00    -0.289 N 
ATOM     21  C   UNL     1      18.358  39.034  21.256  1.00  0.00     0.324 C 
ATOM     22  H   UNL     1      19.474  38.896  23.069  1.00  0.00     0.173 HD
ATOM     23  O   UNL     1      17.612  39.754  20.538  1.00  0.00    -0.248 OA
ATOM     24  H   UNL     1      19.135  37.063  21.525  1.00  0.00     0.171 HD
BRANCH  20  25
ATOM     25  C   UNL     1      18.508  40.790  23.107  1.00  0.00     0.177 A 
ATOM     26  C   UNL     1      17.597  42.419  24.218  1.00  0.00     0.144 A 
ATOM     27  C   UNL     1      17.437  41.074  23.937  1.00  0.00     0.096 A 
ATOM     28  O   UNL     1      18.680  42.850  23.608  1.00  0.00    -0.359 OA
ATOM     29  N   UNL     1      19.253  41.897  22.932  1.00  0.00    -0.062 NA
BRANCH  26  30
ATOM     30  C   UNL     1      16.689  43.268  25.084  1.00  0.00     0.023 C 
ATOM     31  C   UNL     1      15.556  43.848  24.216  1.00  0.00     0.019 C 
ATOM     32  C   UNL     1      16.075  42.414  26.211  1.00  0.00     0.019 C 
ATOM     33  C   UNL     1      17.503  44.417  25.715  1.00  0.00     0.019 C 
ENDBRANCH  26  30
ENDBRANCH  20  25
ENDBRANCH  14  19
ENDBRANCH   1  13
BRANCH  10  34
ATOM     34  O   UNL     1      18.033  31.550   9.057  1.00  0.00    -0.492 OA
BRANCH  34  35
ATOM     35  C   UNL     1      17.978  32.095   7.738  1.00  0.00     0.245 C 
BRANCH  35  36
ATOM     36  C   UNL     1      17.098  31.206   6.848  1.00  0.00     0.126 C 
BRANCH  36  37
ATOM     37  N   UNL     1      16.368  30.195   7.643  1.00  0.00    -0.295 NA
ATOM     38  C   UNL     1      14.972  30.618   7.928  1.00  0.00     0.113 C 
ATOM     39  C   UNL     1      16.429  28.861   6.998  1.00  0.00     0.113 C 
ATOM     40  C   UNL     1      14.006  29.422   7.978  1.00  0.00     0.175 C 
ATOM     41  C   UNL     1      15.207  28.611   6.090  1.00  0.00     0.175 C 
ATOM     42  O   UNL     1      13.947  28.716   6.749  1.00  0.00    -0.379 OA
ENDBRANCH  36  37
ENDBRANCH  35  36
ENDBRANCH  34  35
ENDBRANCH  10  34
TORSDOF 8
ENDMDL
MODEL 2
REMARK VINA RESULT:    -9.459      1.605      2.140
REMARK INTER + INTRA:         -14.861
REMARK INTER:                 -14.318
REMARK INTRA:                  -0.543
REMARK UNBOUND:                -0.978
REMARK SMILES CC(C)(C)c1cc(NC(=O)Nc2ccc(-c3cn4c(n3)sc3cc(OCCN5CCOCC5)ccc34)cc2)no1
REMARK SMILES IDX 16 1 17 2 18 3 19 4 21 5 22 6 36 7 35 8 34 9 24 10 23 11
REMARK SMILES IDX 20 12 15 13 12 14 13 15 38 16 14 17 37 18 11 19 8 20 9 21
REMARK SMILES IDX 10 23 7 25 5 26 6 27 40 28 39 29 2 30 1 31 3 32 4 33 25 34
REMARK SMILES IDX 26 35 27 36 28 37 29 38 33 39 30 40 32 41 31 42
REMARK H PARENT 8 22 11 24
REMARK Flexibility Score: inf
ROOT
ATOM      1  C   UNL     1      18.994  34.590  15.529  1.00  0.00     0.090 A 
ATOM      2  C   UNL     1      18.119  34.960  14.498  1.00  0.00     0.123 A 
ATOM      3  N   UNL     1      18.393  34.131  13.487  1.00  0.00    -0.290 N 
ATOM      4  C   UNL     1      19.355  33.323  13.890  1.00  0.00     0.195 A 
ATOM      5  S   UNL     1      19.844  32.215  12.711  1.00  0.00    -0.096 S 
ATOM      6  C   UNL     1      18.702  32.872  11.617  1.00  0.00     0.058 A 
ATOM      7  C   UNL     1      17.990  33.910  12.220  1.00  0.00     0.065 A 
ATOM      8  C   UNL     1      16.988  34.590  11.534  1.00  0.00     0.032 A 
ATOM      9  C   UNL     1      16.719  34.213  10.206  1.00  0.00     0.048 A 
ATOM     10  C   UNL     1      17.458  33.175   9.582  1.00  0.00     0.120 A 
ATOM     11  C   UNL     1      18.460  32.500  10.299  1.00  0.00     0.067 A 
ATOM     12  N   UNL     1      19.777  33.538  15.145  1.00  0.00    -0.219 NA
ENDROOT
BRANCH   1  13
ATOM     13  C   UNL     1      19.125  35.251  16.846  1.00  0.00     0.002 A 
ATOM     14  C   UNL     1      19.262  36.663  19.289  1.00  0.00     0.042 A 
ATOM     15  C   UNL     1      20.072  37.039  18.202  1.00  0.00     0.027 A 
ATOM     16  C   UNL     1      18.439  35.533  19.168  1.00  0.00     0.027 A 
ATOM     17  C   UNL     1      19.994  36.346  16.992  1.00  0.00     0.012 A 
ATOM     18  C   UNL     1      18.365  34.836  17.957  1.00  0.00     0.012 A 
BRANCH  14  19
ATOM     19  N   UNL     1      19.293  37.390  20.530  1.00  0.00    -0.308 N 
ATOM     20  N   UNL     1      18.621  39.256  22.028  1.00  0.00    -0.289 N 
ATOM     21  C   UNL     1      18.420  38.494  20.828  1.00  0.00     0.324 C 
ATOM     22  H   UNL     1      19.428  38.991  22.641  1.00  0.00     0.173 HD
ATOM     23  O   UNL     1      17.477  38.779  20.042  1.00  0.00    -0.248 OA
ATOM     24  H   UNL     1      19.914  37.040  21.294  1.00  0.00     0.171 HD
BRANCH  20  25
ATOM     25  C   UNL     1      17.781  40.328  22.488  1.00  0.00     0.177 A 
ATOM     26  C   UNL     1      16.455  42.040  22.655  1.00  0.00     0.144 A 
ATOM     27  C   UNL     1      17.112  41.264  21.717  1.00  0.00     0.096 A 
ATOM     28  O   UNL     1      16.721  41.567  23.853  1.00  0.00    -0.359 OA
ATOM     29  N   UNL     1      17.514  40.538  23.790  1.00  0.00    -0.062 NA
BRANCH  26  30
ATOM     30  C   UNL     1      15.569  43.236  22.367  1.00  0.00     0.023 C 
ATOM     31  C   UNL     1      14.179  42.742  21.926  1.00  0.00     0.019 C 
ATOM     32  C   UNL     1      15.419  44.104  23.632  1.00  0.00     0.019 C 
ATOM     33  C   UNL     1      16.200  44.088  21.247  1.00  0.00     0.019 C 
ENDBRANCH  26  30
ENDBRANCH  20  25
ENDBRANCH  14  19
ENDBRANCH   1  13
BRANCH  10  34
ATOM     34  O   UNL     1      17.248  32.823   8.242  1.00  0.00    -0.492 OA
BRANCH  34  35
ATOM     35  C   UNL     1      18.057  31.900   7.511  1.00  0.00     0.245 C 
BRANCH  35  36
ATOM     36  C   UNL     1      17.159  30.975   6.678  1.00  0.00     0.126 C 
BRANCH  36  37
ATOM     37  N   UNL     1      16.430  30.012   7.531  1.00  0.00    -0.295 NA
ATOM     38  C   UNL     1      15.043  30.464   7.814  1.00  0.00     0.113 C 
ATOM     39  C   UNL     1      16.469  28.647   6.952  1.00  0.00     0.113 C 
ATOM     40  C   UNL     1      14.066  29.282   7.935  1.00  0.00     0.175 C 
ATOM     41  C   UNL     1      15.231  28.367   6.074  1.00  0.00     0.175 C 
ATOM     42  O   UNL     1      13.982  28.518   6.743  1.00  0.00    -0.379 OA
ENDBRANCH  36  37
ENDBRANCH  35  36
ENDBRANCH  34  35
ENDBRANCH  10  34
TORSDOF 8
ENDMDL
MODEL 3
REMARK VINA RESULT:    -9.416      1.532      2.055
REMARK INTER + INTRA:         -14.797
REMARK INTER:                 -13.978
REMARK INTRA:                  -0.820
REMARK UNBOUND:                -0.978
REMARK SMILES CC(C)(C)c1cc(NC(=O)Nc2ccc(-c3cn4c(n3)sc3cc(OCCN5CCOCC5)ccc34)cc2)no1
REMARK SMILES IDX 16 1 17 2 18 3 19 4 21 5 22 6 36 7 35 8 34 9 24 10 23 11
REMARK SMILES IDX 20 12 15 13 12 14 13 15 38 16 14 17 37 18 11 19 8 20 9 21
REMARK SMILES IDX 10 23 7 25 5 26 6 27 40 28 39 29 2 30 1 31 3 32 4 33 25 34
REMARK SMILES IDX 26 35 27 36 28 37 29 38 33 39 30 40 32 41 31 42
REMARK H PARENT 8 22 11 24
REMARK Flexibility Score: inf
ROOT
ATOM      1  C   UNL     1      18.986  34.028  15.652  1.00  0.00     0.090 A 
ATOM      2  C   UNL     1      18.101  34.456  14.654  1.00  0.00     0.123 A 
ATOM      3  N   UNL     1      18.418  33.743  13.570  1.00  0.00    -0.290 N 
ATOM      4  C   UNL     1      19.414  32.945  13.902  1.00  0.00     0.195 A 
ATOM      5  S   UNL     1      19.959  31.980  12.625  1.00  0.00    -0.096 S 
ATOM      6  C   UNL     1      18.793  32.688  11.589  1.00  0.00     0.058 A 
ATOM      7  C   UNL     1      18.031  33.629  12.283  1.00  0.00     0.065 A 
ATOM      8  C   UNL     1      17.003  34.327  11.657  1.00  0.00     0.032 A 
ATOM      9  C   UNL     1      16.758  34.069  10.296  1.00  0.00     0.048 A 
ATOM     10  C   UNL     1      17.547  33.132   9.582  1.00  0.00     0.120 A 
ATOM     11  C   UNL     1      18.576  32.435  10.240  1.00  0.00     0.067 A 
ATOM     12  N   UNL     1      19.819  33.054  15.176  1.00  0.00    -0.219 NA
ENDROOT
BRANCH   1  13
ATOM     13  C   UNL     1      19.080  34.563  17.029  1.00  0.00     0.002 A 
ATOM     14  C   UNL     1      19.263  35.768  19.577  1.00  0.00     0.042 A 
ATOM     15  C   UNL     1      20.406  35.633  18.769  1.00  0.00     0.027 A 
ATOM     16  C   UNL     1      18.045  35.231  19.132  1.00  0.00     0.027 A 
ATOM     17  C   UNL     1      20.311  35.046  17.504  1.00  0.00     0.012 A 
ATOM     18  C   UNL     1      17.951  34.639  17.867  1.00  0.00     0.012 A 
BRANCH  14  19
ATOM     19  N   UNL     1      19.329  36.409  20.863  1.00  0.00    -0.308 N 
ATOM     20  N   UNL     1      19.186  38.378  22.374  1.00  0.00    -0.289 N 
ATOM     21  C   UNL     1      18.946  37.777  21.092  1.00  0.00     0.324 C 
ATOM     22  H   UNL     1      19.665  37.795  23.100  1.00  0.00     0.173 HD
ATOM     23  O   UNL     1      18.391  38.437  20.172  1.00  0.00    -0.248 OA
ATOM     24  H   UNL     1      19.575  35.826  21.695  1.00  0.00     0.171 HD
BRANCH  20  25
ATOM     25  C   UNL     1      18.786  39.702  22.764  1.00  0.00     0.177 A 
ATOM     26  C   UNL     1      17.686  41.496  23.301  1.00  0.00     0.144 A 
ATOM     27  C   UNL     1      17.495  40.187  22.899  1.00  0.00     0.096 A 
ATOM     28  O   UNL     1      18.979  41.722  23.401  1.00  0.00    -0.359 OA
ATOM     29  N   UNL     1      19.669  40.665  23.086  1.00  0.00    -0.062 NA
BRANCH  26  30
ATOM     30  C   UNL     1      16.600  42.513  23.589  1.00  0.00     0.023 C 
ATOM     31  C   UNL     1      17.110  43.918  23.217  1.00  0.00     0.019 C 
ATOM     32  C   UNL     1      15.340  42.197  22.758  1.00  0.00     0.019 C 
ATOM     33  C   UNL     1      16.235  42.470  25.087  1.00  0.00     0.019 C 
ENDBRANCH  26  30
ENDBRANCH  20  25
ENDBRANCH  14  19
ENDBRANCH   1  13
BRANCH  10  34
ATOM     34  O   UNL     1      17.361  32.902   8.212  1.00  0.00    -0.492 OA
BRANCH  34  35
ATOM     35  C   UNL     1      18.110  31.964   7.438  1.00  0.00     0.245 C 
BRANCH  35  36
ATOM     36  C   UNL     1      17.151  31.074   6.637  1.00  0.00     0.126 C 
BRANCH  36  37
ATOM     37  N   UNL     1      16.422  30.132   7.514  1.00  0.00    -0.295 NA
ATOM     38  C   UNL     1      15.043  30.603   7.806  1.00  0.00     0.113 C 
ATOM     39  C   UNL     1      16.440  28.758   6.957  1.00  0.00     0.113 C 
ATOM     40  C   UNL     1      14.055  29.434   7.958  1.00  0.00     0.175 C 
ATOM     41  C   UNL     1      15.189  28.476   6.098  1.00  0.00     0.175 C 
ATOM     42  O   UNL     1      13.949  28.651   6.779  1.00  0.00    -0.379 OA
ENDBRANCH  36  37
ENDBRANCH  35  36
ENDBRANCH  34  35
ENDBRANCH  10  34
TORSDOF 8
ENDMDL
MODEL 4
REMARK VINA RESULT:    -9.146      1.380      1.837
REMARK INTER + INTRA:         -14.401
REMARK INTER:                 -13.660
REMARK INTRA:                  -0.741
REMARK UNBOUND:                -0.978
REMARK SMILES CC(C)(C)c1cc(NC(=O)Nc2ccc(-c3cn4c(n3)sc3cc(OCCN5CCOCC5)ccc34)cc2)no1
REMARK SMILES IDX 16 1 17 2 18 3 19 4 21 5 22 6 36 7 35 8 34 9 24 10 23 11
REMARK SMILES IDX 20 12 15 13 12 14 13 15 38 16 14 17 37 18 11 19 8 20 9 21
REMARK SMILES IDX 10 23 7 25 5 26 6 27 40 28 39 29 2 30 1 31 3 32 4 33 25 34
REMARK SMILES IDX 26 35 27 36 28 37 29 38 33 39 30 40 32 41 31 42
REMARK H PARENT 8 22 11 24
REMARK Flexibility Score: inf
ROOT
ATOM      1  C   UNL     1      18.877  35.530  16.221  1.00  0.00     0.090 A 
ATOM      2  C   UNL     1      17.823  35.021  15.451  1.00  0.00     0.123 A 
ATOM      3  N   UNL     1      18.401  34.447  14.393  1.00  0.00    -0.290 N 
ATOM      4  C   UNL     1      19.705  34.599  14.527  1.00  0.00     0.195 A 
ATOM      5  S   UNL     1      20.596  33.944  13.248  1.00  0.00    -0.096 S 
ATOM      6  C   UNL     1      19.143  33.446  12.489  1.00  0.00     0.058 A 
ATOM      7  C   UNL     1      18.039  33.800  13.267  1.00  0.00     0.065 A 
ATOM      8  C   UNL     1      16.745  33.483  12.868  1.00  0.00     0.032 A 
ATOM      9  C   UNL     1      16.573  32.806  11.647  1.00  0.00     0.048 A 
ATOM     10  C   UNL     1      17.691  32.467  10.842  1.00  0.00     0.120 A 
ATOM     11  C   UNL     1      18.989  32.793  11.272  1.00  0.00     0.067 A 
ATOM     12  N   UNL     1      20.082  35.252  15.637  1.00  0.00    -0.219 NA
ENDROOT
BRANCH   1  13
ATOM     13  C   UNL     1      18.753  36.313  17.471  1.00  0.00     0.002 A 
ATOM     14  C   UNL     1      18.495  37.633  19.955  1.00  0.00     0.042 A 
ATOM     15  C   UNL     1      17.359  37.140  19.288  1.00  0.00     0.027 A 
ATOM     16  C   UNL     1      19.750  37.526  19.335  1.00  0.00     0.027 A 
ATOM     17  C   UNL     1      17.490  36.478  18.065  1.00  0.00     0.012 A 
ATOM     18  C   UNL     1      19.881  36.866  18.108  1.00  0.00     0.012 A 
BRANCH  14  19
ATOM     19  N   UNL     1      18.388  38.277  21.236  1.00  0.00    -0.308 N 
ATOM     20  N   UNL     1      18.049  40.251  22.710  1.00  0.00    -0.289 N 
ATOM     21  C   UNL     1      17.984  39.647  21.408  1.00  0.00     0.324 C 
ATOM     22  H   UNL     1      18.421  39.667  23.496  1.00  0.00     0.173 HD
ATOM     23  O   UNL     1      17.563  40.307  20.420  1.00  0.00    -0.248 OA
ATOM     24  H   UNL     1      18.516  37.695  22.095  1.00  0.00     0.171 HD
BRANCH  20  25
ATOM     25  C   UNL     1      17.605  41.577  23.039  1.00  0.00     0.177 A 
ATOM     26  C   UNL     1      16.465  43.401  23.341  1.00  0.00     0.144 A 
ATOM     27  C   UNL     1      16.345  42.118  22.840  1.00  0.00     0.096 A 
ATOM     28  O   UNL     1      17.688  43.561  23.801  1.00  0.00    -0.359 OA
ATOM     29  N   UNL     1      18.399  42.485  23.636  1.00  0.00    -0.062 NA
BRANCH  26  30
ATOM     30  C   UNL     1      15.379  44.458  23.370  1.00  0.00     0.023 C 
ATOM     31  C   UNL     1      14.177  43.972  22.538  1.00  0.00     0.019 C 
ATOM     32  C   UNL     1      14.921  44.712  24.819  1.00  0.00     0.019 C 
ATOM     33  C   UNL     1      15.924  45.775  22.779  1.00  0.00     0.019 C 
ENDBRANCH  26  30
ENDBRANCH  20  25
ENDBRANCH  14  19
ENDBRANCH   1  13
BRANCH  10  34
ATOM     34  O   UNL     1      17.541  31.846   9.595  1.00  0.00    -0.492 OA
BRANCH  34  35
ATOM     35  C   UNL     1      17.314  32.539   8.367  1.00  0.00     0.245 C 
BRANCH  35  36
ATOM     36  C   UNL     1      16.861  31.544   7.289  1.00  0.00     0.126 C 
BRANCH  36  37
ATOM     37  N   UNL     1      16.204  30.360   7.884  1.00  0.00    -0.295 NA
ATOM     38  C   UNL     1      14.730  30.531   7.969  1.00  0.00     0.113 C 
ATOM     39  C   UNL     1      16.584  29.120   7.165  1.00  0.00     0.113 C 
ATOM     40  C   UNL     1      13.984  29.199   7.779  1.00  0.00     0.175 C 
ATOM     41  C   UNL     1      15.569  28.770   6.058  1.00  0.00     0.175 C 
ATOM     42  O   UNL     1      14.226  28.614   6.510  1.00  0.00    -0.379 OA
ENDBRANCH  36  37
ENDBRANCH  35  36
ENDBRANCH  34  35
ENDBRANCH  10  34
TORSDOF 8
ENDMDL
MODEL 5
REMARK VINA RESULT:    -9.103      2.971     14.790
REMARK INTER + INTRA:         -14.338
REMARK INTER:                 -13.166
REMARK INTRA:                  -1.172
REMARK UNBOUND:                -0.978
REMARK SMILES CC(C)(C)c1cc(NC(=O)Nc2ccc(-c3cn4c(n3)sc3cc(OCCN5CCOCC5)ccc34)cc2)no1
REMARK SMILES IDX 16 1 17 2 18 3 19 4 21 5 22 6 36 7 35 8 34 9 24 10 23 11
REMARK SMILES IDX 20 12 15 13 12 14 13 15 38 16 14 17 37 18 11 19 8 20 9 21
REMARK SMILES IDX 10 23 7 25 5 26 6 27 40 28 39 29 2 30 1 31 3 32 4 33 25 34
REMARK SMILES IDX 26 35 27 36 28 37 29 38 33 39 30 40 32 41 31 42
REMARK H PARENT 8 22 11 24
REMARK Flexibility Score: inf
ROOT
ATOM      1  C   UNL     1      19.119  37.224  19.328  1.00  0.00     0.090 A 
ATOM      2  C   UNL     1      17.992  38.007  19.610  1.00  0.00     0.123 A 
ATOM      3  N   UNL     1      18.306  38.695  20.711  1.00  0.00    -0.290 N 
ATOM      4  C   UNL     1      19.532  38.351  21.054  1.00  0.00     0.195 A 
ATOM      5  S   UNL     1      20.081  39.120  22.456  1.00  0.00    -0.096 S 
ATOM      6  C   UNL     1      18.585  39.943  22.593  1.00  0.00     0.058 A 
ATOM      7  C   UNL     1      17.737  39.592  21.542  1.00  0.00     0.065 A 
ATOM      8  C   UNL     1      16.467  40.147  21.425  1.00  0.00     0.032 A 
ATOM      9  C   UNL     1      16.050  41.066  22.405  1.00  0.00     0.048 A 
ATOM     10  C   UNL     1      16.901  41.406  23.489  1.00  0.00     0.120 A 
ATOM     11  C   UNL     1      18.182  40.835  23.580  1.00  0.00     0.067 A 
ATOM     12  N   UNL     1      20.108  37.450  20.244  1.00  0.00    -0.219 NA
ENDROOT
BRANCH   1  13
ATOM     13  C   UNL     1      19.249  36.236  18.234  1.00  0.00     0.002 A 
ATOM     14  C   UNL     1      19.316  34.410  16.079  1.00  0.00     0.042 A 
ATOM     15  C   UNL     1      18.560  34.126  17.231  1.00  0.00     0.027 A 
ATOM     16  C   UNL     1      20.095  35.577  16.045  1.00  0.00     0.027 A 
ATOM     17  C   UNL     1      18.520  35.036  18.291  1.00  0.00     0.012 A 
ATOM     18  C   UNL     1      20.058  36.486  17.108  1.00  0.00     0.012 A 
BRANCH  14  19
ATOM     19  N   UNL     1      19.336  33.509  14.958  1.00  0.00    -0.308 N 
ATOM     20  N   UNL     1      18.378  32.512  12.892  1.00  0.00    -0.289 N 
ATOM     21  C   UNL     1      18.370  33.543  13.892  1.00  0.00     0.324 C 
ATOM     22  H   UNL     1      19.082  31.744  12.994  1.00  0.00     0.173 HD
ATOM     23  O   UNL     1      17.532  34.483  13.833  1.00  0.00    -0.248 OA
ATOM     24  H   UNL     1      20.147  32.858  14.860  1.00  0.00     0.171 HD
BRANCH  20  25
ATOM     25  C   UNL     1      17.528  32.465  11.735  1.00  0.00     0.177 A 
ATOM     26  C   UNL     1      16.691  32.551   9.733  1.00  0.00     0.144 A 
ATOM     27  C   UNL     1      17.863  32.782  10.429  1.00  0.00     0.096 A 
ATOM     28  O   UNL     1      15.777  32.122  10.576  1.00  0.00    -0.359 OA
ATOM     29  N   UNL     1      16.246  32.057  11.788  1.00  0.00    -0.062 NA
BRANCH  26  30
ATOM     30  C   UNL     1      16.478  32.750   8.245  1.00  0.00     0.023 C 
ATOM     31  C   UNL     1      15.928  34.167   7.996  1.00  0.00     0.019 C 
ATOM     32  C   UNL     1      17.811  32.585   7.489  1.00  0.00     0.019 C 
ATOM     33  C   UNL     1      15.473  31.702   7.723  1.00  0.00     0.019 C 
ENDBRANCH  26  30
ENDBRANCH  20  25
ENDBRANCH  14  19
ENDBRANCH   1  13
BRANCH  10  34
ATOM     34  O   UNL     1      16.486  42.272  24.509  1.00  0.00    -0.492 OA
BRANCH  34  35
ATOM     35  C   UNL     1      16.559  43.697  24.442  1.00  0.00     0.245 C 
BRANCH  35  36
ATOM     36  C   UNL     1      15.164  44.272  24.161  1.00  0.00     0.126 C 
BRANCH  36  37
ATOM     37  N   UNL     1      15.153  45.094  22.931  1.00  0.00    -0.295 NA
ATOM     38  C   UNL     1      16.334  44.819  22.073  1.00  0.00     0.113 C 
ATOM     39  C   UNL     1      13.875  44.937  22.195  1.00  0.00     0.113 C 
ATOM     40  C   UNL     1      16.002  44.954  20.576  1.00  0.00     0.175 C 
ATOM     41  C   UNL     1      13.971  43.838  21.116  1.00  0.00     0.175 C 
ATOM     42  O   UNL     1      15.004  44.039  20.154  1.00  0.00    -0.379 OA
ENDBRANCH  36  37
ENDBRANCH  35  36
ENDBRANCH  34  35
ENDBRANCH  10  34
TORSDOF 8
ENDMDL
MODEL 6
REMARK VINA RESULT:    -8.840      7.142      9.413
REMARK INTER + INTRA:         -13.951
REMARK INTER:                 -13.804
REMARK INTRA:                  -0.147
REMARK UNBOUND:                -0.978
REMARK SMILES CC(C)(C)c1cc(NC(=O)Nc2ccc(-c3cn4c(n3)sc3cc(OCCN5CCOCC5)ccc34)cc2)no1
REMARK SMILES IDX 16 1 17 2 18 3 19 4 21 5 22 6 36 7 35 8 34 9 24 10 23 11
REMARK SMILES IDX 20 12 15 13 12 14 13 15 38 16 14 17 37 18 11 19 8 20 9 21
REMARK SMILES IDX 10 23 7 25 5 26 6 27 40 28 39 29 2 30 1 31 3 32 4 33 25 34
REMARK SMILES IDX 26 35 27 36 28 37 29 38 33 39 30 40 32 41 31 42
REMARK H PARENT 8 22 11 24
REMARK Flexibility Score: inf
ROOT
ATOM      1  C   UNL     1      20.354  34.173  16.445  1.00  0.00     0.090 A 
ATOM      2  C   UNL     1      20.481  33.995  15.061  1.00  0.00     0.123 A 
ATOM      3  N   UNL     1      19.239  34.076  14.578  1.00  0.00    -0.290 N 
ATOM      4  C   UNL     1      18.433  34.294  15.599  1.00  0.00     0.195 A 
ATOM      5  S   UNL     1      16.803  34.400  15.163  1.00  0.00    -0.096 S 
ATOM      6  C   UNL     1      17.223  34.133  13.524  1.00  0.00     0.058 A 
ATOM      7  C   UNL     1      18.604  33.985  13.391  1.00  0.00     0.065 A 
ATOM      8  C   UNL     1      19.190  33.777  12.147  1.00  0.00     0.032 A 
ATOM      9  C   UNL     1      18.352  33.704  11.021  1.00  0.00     0.048 A 
ATOM     10  C   UNL     1      16.945  33.829  11.155  1.00  0.00     0.120 A 
ATOM     11  C   UNL     1      16.378  34.045  12.423  1.00  0.00     0.067 A 
ATOM     12  N   UNL     1      19.047  34.375  16.790  1.00  0.00    -0.219 NA
ENDROOT
BRANCH   1  13
ATOM     13  C   UNL     1      21.446  34.108  17.441  1.00  0.00     0.002 A 
ATOM     14  C   UNL     1      23.659  34.029  19.195  1.00  0.00     0.042 A 
ATOM     15  C   UNL     1      23.389  32.946  18.339  1.00  0.00     0.027 A 
ATOM     16  C   UNL     1      22.775  35.118  19.218  1.00  0.00     0.027 A 
ATOM     17  C   UNL     1      22.300  32.992  17.465  1.00  0.00     0.012 A 
ATOM     18  C   UNL     1      21.681  35.162  18.346  1.00  0.00     0.012 A 
BRANCH  14  19
ATOM     19  N   UNL     1      24.801  34.022  20.070  1.00  0.00    -0.308 N 
ATOM     20  N   UNL     1      26.930  33.075  20.938  1.00  0.00    -0.289 N 
ATOM     21  C   UNL     1      25.905  33.111  19.932  1.00  0.00     0.324 C 
ATOM     22  H   UNL     1      26.818  33.708  21.765  1.00  0.00     0.173 HD
ATOM     23  O   UNL     1      25.976  32.358  18.923  1.00  0.00    -0.248 OA
ATOM     24  H   UNL     1      24.881  34.780  20.785  1.00  0.00     0.171 HD
BRANCH  20  25
ATOM     25  C   UNL     1      28.123  32.276  20.888  1.00  0.00     0.177 A 
ATOM     26  C   UNL     1      29.964  31.276  20.317  1.00  0.00     0.144 A 
ATOM     27  C   UNL     1      29.002  32.140  19.827  1.00  0.00     0.096 A 
ATOM     28  O   UNL     1      29.659  30.967  21.559  1.00  0.00    -0.359 OA
ATOM     29  N   UNL     1      28.559  31.551  21.934  1.00  0.00    -0.062 NA
BRANCH  26  30
ATOM     30  C   UNL     1      31.177  30.765  19.566  1.00  0.00     0.023 C 
ATOM     31  C   UNL     1      31.823  29.618  20.366  1.00  0.00     0.019 C 
ATOM     32  C   UNL     1      30.763  30.241  18.177  1.00  0.00     0.019 C 
ATOM     33  C   UNL     1      32.194  31.911  19.386  1.00  0.00     0.019 C 
ENDBRANCH  26  30
ENDBRANCH  20  25
ENDBRANCH  14  19
ENDBRANCH   1  13
BRANCH  10  34
ATOM     34  O   UNL     1      16.084  33.701  10.056  1.00  0.00    -0.492 OA
BRANCH  34  35
ATOM     35  C   UNL     1      16.347  34.228   8.756  1.00  0.00     0.245 C 
BRANCH  35  36
ATOM     36  C   UNL     1      16.003  33.176   7.693  1.00  0.00     0.126 C 
BRANCH  36  37
ATOM     37  N   UNL     1      16.186  31.802   8.209  1.00  0.00    -0.295 NA
ATOM     38  C   UNL     1      15.180  30.863   7.649  1.00  0.00     0.113 C 
ATOM     39  C   UNL     1      17.576  31.330   7.993  1.00  0.00     0.113 C 
ATOM     40  C   UNL     1      15.754  29.447   7.464  1.00  0.00     0.175 C 
ATOM     41  C   UNL     1      17.710  30.544   6.672  1.00  0.00     0.175 C 
ATOM     42  O   UNL     1      16.848  29.415   6.562  1.00  0.00    -0.379 OA
ENDBRANCH  36  37
ENDBRANCH  35  36
ENDBRANCH  34  35
ENDBRANCH  10  34
TORSDOF 8
ENDMDL
MODEL 7
REMARK VINA RESULT:    -8.822      2.653      3.187
REMARK INTER + INTRA:         -13.926
REMARK INTER:                 -13.163
REMARK INTRA:                  -0.763
REMARK UNBOUND:                -0.978
REMARK SMILES CC(C)(C)c1cc(NC(=O)Nc2ccc(-c3cn4c(n3)sc3cc(OCCN5CCOCC5)ccc34)cc2)no1
REMARK SMILES IDX 16 1 17 2 18 3 19 4 21 5 22 6 36 7 35 8 34 9 24 10 23 11
REMARK SMILES IDX 20 12 15 13 12 14 13 15 38 16 14 17 37 18 11 19 8 20 9 21
REMARK SMILES IDX 10 23 7 25 5 26 6 27 40 28 39 29 2 30 1 31 3 32 4 33 25 34
REMARK SMILES IDX 26 35 27 36 28 37 29 38 33 39 30 40 32 41 31 42
REMARK H PARENT 8 22 11 24
REMARK Flexibility Score: inf
ROOT
ATOM      1  C   UNL     1      18.273  34.222  15.077  1.00  0.00     0.090 A 
ATOM      2  C   UNL     1      17.451  34.603  14.008  1.00  0.00     0.123 A 
ATOM      3  N   UNL     1      17.900  33.916  12.954  1.00  0.00    -0.290 N 
ATOM      4  C   UNL     1      18.911  33.177  13.368  1.00  0.00     0.195 A 
ATOM      5  S   UNL     1      19.618  32.254  12.141  1.00  0.00    -0.096 S 
ATOM      6  C   UNL     1      18.503  32.898  11.011  1.00  0.00     0.058 A 
ATOM      7  C   UNL     1      17.630  33.787  11.639  1.00  0.00     0.065 A 
ATOM      8  C   UNL     1      16.618  34.426  10.930  1.00  0.00     0.032 A 
ATOM      9  C   UNL     1      16.504  34.163   9.553  1.00  0.00     0.048 A 
ATOM     10  C   UNL     1      17.406  33.278   8.906  1.00  0.00     0.120 A 
ATOM     11  C   UNL     1      18.416  32.641   9.648  1.00  0.00     0.067 A 
ATOM     12  N   UNL     1      19.200  33.303  14.672  1.00  0.00    -0.219 NA
ENDROOT
BRANCH   1  13
ATOM     13  C   UNL     1      18.219  34.753  16.458  1.00  0.00     0.002 A 
ATOM     14  C   UNL     1      18.299  35.843  19.062  1.00  0.00     0.042 A 
ATOM     15  C   UNL     1      18.983  34.649  18.768  1.00  0.00     0.027 A 
ATOM     16  C   UNL     1      17.518  36.446  18.065  1.00  0.00     0.027 A 
ATOM     17  C   UNL     1      18.950  34.118  17.476  1.00  0.00     0.012 A 
ATOM     18  C   UNL     1      17.482  35.912  16.772  1.00  0.00     0.012 A 
BRANCH  14  19
ATOM     19  N   UNL     1      18.356  36.431  20.374  1.00  0.00    -0.308 N 
ATOM     20  N   UNL     1      19.450  37.763  22.166  1.00  0.00    -0.289 N 
ATOM     21  C   UNL     1      19.388  37.341  20.794  1.00  0.00     0.324 C 
ATOM     22  H   UNL     1      18.744  37.362  22.828  1.00  0.00     0.173 HD
ATOM     23  O   UNL     1      20.224  37.775  19.956  1.00  0.00    -0.248 OA
ATOM     24  H   UNL     1      17.556  36.267  21.025  1.00  0.00     0.171 HD
BRANCH  20  25
ATOM     25  C   UNL     1      20.373  38.724  22.704  1.00  0.00     0.177 A 
ATOM     26  C   UNL     1      21.615  40.463  23.088  1.00  0.00     0.144 A 
ATOM     27  C   UNL     1      20.707  39.959  22.175  1.00  0.00     0.096 A 
ATOM     28  O   UNL     1      21.764  39.589  24.060  1.00  0.00    -0.359 OA
ATOM     29  N   UNL     1      21.032  38.533  23.862  1.00  0.00    -0.062 NA
BRANCH  26  30
ATOM     30  C   UNL     1      22.325  41.800  23.002  1.00  0.00     0.023 C 
ATOM     31  C   UNL     1      21.684  42.779  24.004  1.00  0.00     0.019 C 
ATOM     32  C   UNL     1      23.818  41.633  23.344  1.00  0.00     0.019 C 
ATOM     33  C   UNL     1      22.199  42.361  21.570  1.00  0.00     0.019 C 
ENDBRANCH  26  30
ENDBRANCH  20  25
ENDBRANCH  14  19
ENDBRANCH   1  13
BRANCH  10  34
ATOM     34  O   UNL     1      17.349  33.046   7.525  1.00  0.00    -0.492 OA
BRANCH  34  35
ATOM     35  C   UNL     1      16.615  31.987   6.911  1.00  0.00     0.245 C 
BRANCH  35  36
ATOM     36  C   UNL     1      17.395  30.672   7.046  1.00  0.00     0.126 C 
BRANCH  36  37
ATOM     37  N   UNL     1      16.567  29.609   7.657  1.00  0.00    -0.295 NA
ATOM     38  C   UNL     1      15.207  30.098   8.000  1.00  0.00     0.113 C 
ATOM     39  C   UNL     1      16.530  28.400   6.799  1.00  0.00     0.113 C 
ATOM     40  C   UNL     1      14.143  28.996   7.843  1.00  0.00     0.175 C 
ATOM     41  C   UNL     1      15.310  28.410   5.855  1.00  0.00     0.175 C 
ATOM     42  O   UNL     1      14.050  28.512   6.513  1.00  0.00    -0.379 OA
ENDBRANCH  36  37
ENDBRANCH  35  36
ENDBRANCH  34  35
ENDBRANCH  10  34
TORSDOF 8
ENDMDL
MODEL 8
REMARK VINA RESULT:    -8.664      2.757      3.189
REMARK INTER + INTRA:         -13.694
REMARK INTER:                 -12.668
REMARK INTRA:                  -1.026
REMARK UNBOUND:                -0.978
REMARK SMILES CC(C)(C)c1cc(NC(=O)Nc2ccc(-c3cn4c(n3)sc3cc(OCCN5CCOCC5)ccc34)cc2)no1
REMARK SMILES IDX 16 1 17 2 18 3 19 4 21 5 22 6 36 7 35 8 34 9 24 10 23 11
REMARK SMILES IDX 20 12 15 13 12 14 13 15 38 16 14 17 37 18 11 19 8 20 9 21
REMARK SMILES IDX 10 23 7 25 5 26 6 27 40 28 39 29 2 30 1 31 3 32 4 33 25 34
REMARK SMILES IDX 26 35 27 36 28 37 29 38 33 39 30 40 32 41 31 42
REMARK H PARENT 8 22 11 24
REMARK Flexibility Score: inf
ROOT
ATOM      1  C   UNL     1      17.596  34.855  16.116  1.00  0.00     0.090 A 
ATOM      2  C   UNL     1      18.513  34.364  15.177  1.00  0.00     0.123 A 
ATOM      3  N   UNL     1      17.781  34.013  14.117  1.00  0.00    -0.290 N 
ATOM      4  C   UNL     1      16.521  34.280  14.403  1.00  0.00     0.195 A 
ATOM      5  S   UNL     1      15.446  33.868  13.165  1.00  0.00    -0.096 S 
ATOM      6  C   UNL     1      16.753  33.302  12.215  1.00  0.00     0.058 A 
ATOM      7  C   UNL     1      17.960  33.468  12.896  1.00  0.00     0.065 A 
ATOM      8  C   UNL     1      19.170  33.099  12.319  1.00  0.00     0.032 A 
ATOM      9  C   UNL     1      19.148  32.537  11.029  1.00  0.00     0.048 A 
ATOM     10  C   UNL     1      17.920  32.343  10.344  1.00  0.00     0.120 A 
ATOM     11  C   UNL     1      16.712  32.731  10.948  1.00  0.00     0.067 A 
ATOM     12  N   UNL     1      16.324  34.811  15.619  1.00  0.00    -0.219 NA
ENDROOT
BRANCH   1  13
ATOM     13  C   UNL     1      17.908  35.316  17.487  1.00  0.00     0.002 A 
ATOM     14  C   UNL     1      18.674  36.274  20.032  1.00  0.00     0.042 A 
ATOM     15  C   UNL     1      19.235  35.091  19.517  1.00  0.00     0.027 A 
ATOM     16  C   UNL     1      17.675  36.932  19.297  1.00  0.00     0.027 A 
ATOM     17  C   UNL     1      18.862  34.626  18.253  1.00  0.00     0.012 A 
ATOM     18  C   UNL     1      17.299  36.463  18.033  1.00  0.00     0.012 A 
BRANCH  14  19
ATOM     19  N   UNL     1      19.076  36.796  21.310  1.00  0.00    -0.308 N 
ATOM     20  N   UNL     1      20.629  38.009  22.826  1.00  0.00    -0.289 N 
ATOM     21  C   UNL     1      20.213  37.658  21.497  1.00  0.00     0.324 C 
ATOM     22  H   UNL     1      20.094  37.595  23.626  1.00  0.00     0.173 HD
ATOM     23  O   UNL     1      20.830  38.110  20.495  1.00  0.00    -0.248 OA
ATOM     24  H   UNL     1      18.456  36.621  22.134  1.00  0.00     0.171 HD
BRANCH  20  25
ATOM     25  C   UNL     1      21.691  38.919  23.156  1.00  0.00     0.177 A 
ATOM     26  C   UNL     1      22.905  40.659  23.620  1.00  0.00     0.144 A 
ATOM     27  C   UNL     1      21.613  40.295  23.284  1.00  0.00     0.096 A 
ATOM     28  O   UNL     1      23.643  39.573  23.691  1.00  0.00    -0.359 OA
ATOM     29  N   UNL     1      22.946  38.509  23.419  1.00  0.00    -0.062 NA
BRANCH  26  30
ATOM     30  C   UNL     1      23.402  42.069  23.871  1.00  0.00     0.023 C 
ATOM     31  C   UNL     1      24.940  42.087  23.782  1.00  0.00     0.019 C 
ATOM     32  C   UNL     1      22.824  43.034  22.818  1.00  0.00     0.019 C 
ATOM     33  C   UNL     1      22.956  42.531  25.274  1.00  0.00     0.019 C 
ENDBRANCH  26  30
ENDBRANCH  20  25
ENDBRANCH  14  19
ENDBRANCH   1  13
BRANCH  10  34
ATOM     34  O   UNL     1      17.867  31.731   9.085  1.00  0.00    -0.492 OA
BRANCH  34  35
ATOM     35  C   UNL     1      17.638  32.423   7.857  1.00  0.00     0.245 C 
BRANCH  35  36
ATOM     36  C   UNL     1      16.636  31.637   7.001  1.00  0.00     0.126 C 
BRANCH  36  37
ATOM     37  N   UNL     1      16.130  30.444   7.713  1.00  0.00    -0.295 NA
ATOM     38  C   UNL     1      14.662  30.510   7.929  1.00  0.00     0.113 C 
ATOM     39  C   UNL     1      16.541  29.195   7.026  1.00  0.00     0.113 C 
ATOM     40  C   UNL     1      14.009  29.117   7.877  1.00  0.00     0.175 C 
ATOM     41  C   UNL     1      15.461  28.709   6.038  1.00  0.00     0.175 C 
ATOM     42  O   UNL     1      14.181  28.479   6.622  1.00  0.00    -0.379 OA
ENDBRANCH  36  37
ENDBRANCH  35  36
ENDBRANCH  34  35
ENDBRANCH  10  34
TORSDOF 8
ENDMDL
MODEL 9
REMARK VINA RESULT:    -8.639      6.217     14.748
REMARK INTER + INTRA:         -13.657
REMARK INTER:                 -13.242
REMARK INTRA:                  -0.415
REMARK UNBOUND:                -0.978
REMARK SMILES CC(C)(C)c1cc(NC(=O)Nc2ccc(-c3cn4c(n3)sc3cc(OCCN5CCOCC5)ccc34)cc2)no1
REMARK SMILES IDX 16 1 17 2 18 3 19 4 21 5 22 6 36 7 35 8 34 9 24 10 23 11
REMARK SMILES IDX 20 12 15 13 12 14 13 15 38 16 14 17 37 18 11 19 8 20 9 21
REMARK SMILES IDX 10 23 7 25 5 26 6 27 40 28 39 29 2 30 1 31 3 32 4 33 25 34
REMARK SMILES IDX 26 35 27 36 28 37 29 38 33 39 30 40 32 41 31 42
REMARK H PARENT 8 22 11 24
REMARK Flexibility Score: inf
ROOT
ATOM      1  C   UNL     1      20.349  34.675  16.215  1.00  0.00     0.090 A 
ATOM      2  C   UNL     1      21.316  33.797  16.724  1.00  0.00     0.123 A 
ATOM      3  N   UNL     1      21.878  34.445  17.748  1.00  0.00    -0.290 N 
ATOM      4  C   UNL     1      21.285  35.619  17.844  1.00  0.00     0.195 A 
ATOM      5  S   UNL     1      21.899  36.585  19.088  1.00  0.00    -0.096 S 
ATOM      6  C   UNL     1      23.015  35.352  19.497  1.00  0.00     0.058 A 
ATOM      7  C   UNL     1      22.852  34.248  18.659  1.00  0.00     0.065 A 
ATOM      8  C   UNL     1      23.634  33.107  18.810  1.00  0.00     0.032 A 
ATOM      9  C   UNL     1      24.610  33.099  19.823  1.00  0.00     0.048 A 
ATOM     10  C   UNL     1      24.795  34.230  20.660  1.00  0.00     0.120 A 
ATOM     11  C   UNL     1      23.987  35.367  20.491  1.00  0.00     0.067 A 
ATOM     12  N   UNL     1      20.321  35.836  16.936  1.00  0.00    -0.219 NA
ENDROOT
BRANCH   1  13
ATOM     13  C   UNL     1      19.492  34.445  15.031  1.00  0.00     0.002 A 
ATOM     14  C   UNL     1      17.835  34.205  12.756  1.00  0.00     0.042 A 
ATOM     15  C   UNL     1      17.275  34.456  14.022  1.00  0.00     0.027 A 
ATOM     16  C   UNL     1      19.219  34.004  12.649  1.00  0.00     0.027 A 
ATOM     17  C   UNL     1      18.098  34.585  15.144  1.00  0.00     0.012 A 
ATOM     18  C   UNL     1      20.043  34.128  13.774  1.00  0.00     0.012 A 
BRANCH  14  19
ATOM     19  N   UNL     1      17.010  34.114  11.581  1.00  0.00    -0.308 N 
ATOM     20  N   UNL     1      16.361  33.128   9.393  1.00  0.00    -0.289 N 
ATOM     21  C   UNL     1      17.121  33.059  10.610  1.00  0.00     0.324 C 
ATOM     22  H   UNL     1      15.764  33.975   9.243  1.00  0.00     0.173 HD
ATOM     23  O   UNL     1      17.873  32.072  10.836  1.00  0.00    -0.248 OA
ATOM     24  H   UNL     1      16.224  34.794  11.473  1.00  0.00     0.171 HD
BRANCH  20  25
ATOM     25  C   UNL     1      16.315  32.112   8.378  1.00  0.00     0.177 A 
ATOM     26  C   UNL     1      16.027  30.285   7.239  1.00  0.00     0.144 A 
ATOM     27  C   UNL     1      15.857  30.812   8.507  1.00  0.00     0.096 A 
ATOM     28  O   UNL     1      16.524  31.220   6.458  1.00  0.00    -0.359 OA
ATOM     29  N   UNL     1      16.709  32.331   7.109  1.00  0.00    -0.062 NA
BRANCH  26  30
ATOM     30  C   UNL     1      15.696  28.871   6.804  1.00  0.00     0.023 C 
ATOM     31  C   UNL     1      14.646  28.920   5.678  1.00  0.00     0.019 C 
ATOM     32  C   UNL     1      16.963  28.164   6.283  1.00  0.00     0.019 C 
ATOM     33  C   UNL     1      15.138  28.078   8.004  1.00  0.00     0.019 C 
ENDBRANCH  26  30
ENDBRANCH  20  25
ENDBRANCH  14  19
ENDBRANCH   1  13
BRANCH  10  34
ATOM     34  O   UNL     1      25.799  34.268  21.637  1.00  0.00    -0.492 OA
BRANCH  34  35
ATOM     35  C   UNL     1      27.199  34.205  21.362  1.00  0.00     0.245 C 
BRANCH  35  36
ATOM     36  C   UNL     1      27.667  32.744  21.393  1.00  0.00     0.126 C 
BRANCH  36  37
ATOM     37  N   UNL     1      28.620  32.455  20.299  1.00  0.00    -0.295 NA
ATOM     38  C   UNL     1      29.624  31.434  20.696  1.00  0.00     0.113 C 
ATOM     39  C   UNL     1      27.907  32.087  19.052  1.00  0.00     0.113 C 
ATOM     40  C   UNL     1      30.045  30.549  19.509  1.00  0.00     0.175 C 
ATOM     41  C   UNL     1      27.739  30.559  18.923  1.00  0.00     0.175 C 
ATOM     42  O   UNL     1      28.959  29.822  18.957  1.00  0.00    -0.379 OA
ENDBRANCH  36  37
ENDBRANCH  35  36
ENDBRANCH  34  35
ENDBRANCH  10  34
TORSDOF 8
ENDMDL
MODEL 10
REMARK VINA RESULT:    -8.596      7.016     13.991
REMARK INTER + INTRA:         -13.595
REMARK INTER:                 -12.514
REMARK INTRA:                  -1.081
REMARK UNBOUND:                -0.978
REMARK SMILES CC(C)(C)c1cc(NC(=O)Nc2ccc(-c3cn4c(n3)sc3cc(OCCN5CCOCC5)ccc34)cc2)no1
REMARK SMILES IDX 16 1 17 2 18 3 19 4 21 5 22 6 36 7 35 8 34 9 24 10 23 11
REMARK SMILES IDX 20 12 15 13 12 14 13 15 38 16 14 17 37 18 11 19 8 20 9 21
REMARK SMILES IDX 10 23 7 25 5 26 6 27 40 28 39 29 2 30 1 31 3 32 4 33 25 34
REMARK SMILES IDX 26 35 27 36 28 37 29 38 33 39 30 40 32 41 31 42
REMARK H PARENT 8 22 11 24
REMARK Flexibility Score: inf
ROOT
ATOM      1  C   UNL     1      21.664  35.586  18.690  1.00  0.00     0.090 A 
ATOM      2  C   UNL     1      22.522  34.525  19.009  1.00  0.00     0.123 A 
ATOM      3  N   UNL     1      23.471  35.057  19.784  1.00  0.00    -0.290 N 
ATOM      4  C   UNL     1      23.193  36.339  19.921  1.00  0.00     0.195 A 
ATOM      5  S   UNL     1      24.320  37.177  20.863  1.00  0.00    -0.096 S 
ATOM      6  C   UNL     1      25.215  35.733  21.080  1.00  0.00     0.058 A 
ATOM      7  C   UNL     1      24.594  34.670  20.423  1.00  0.00     0.065 A 
ATOM      8  C   UNL     1      25.124  33.385  20.470  1.00  0.00     0.032 A 
ATOM      9  C   UNL     1      26.316  33.184  21.188  1.00  0.00     0.048 A 
ATOM     10  C   UNL     1      26.964  34.267  21.837  1.00  0.00     0.120 A 
ATOM     11  C   UNL     1      26.403  35.555  21.779  1.00  0.00     0.067 A 
ATOM     12  N   UNL     1      22.085  36.744  19.281  1.00  0.00    -0.219 NA
ENDROOT
BRANCH   1  13
ATOM     13  C   UNL     1      20.484  35.522  17.800  1.00  0.00     0.002 A 
ATOM     14  C   UNL     1      18.345  35.298  15.968  1.00  0.00     0.042 A 
ATOM     15  C   UNL     1      19.354  36.259  15.772  1.00  0.00     0.027 A 
ATOM     16  C   UNL     1      18.376  34.502  17.123  1.00  0.00     0.027 A 
ATOM     17  C   UNL     1      20.417  36.359  16.673  1.00  0.00     0.012 A 
ATOM     18  C   UNL     1      19.438  34.607  18.029  1.00  0.00     0.012 A 
BRANCH  14  19
ATOM     19  N   UNL     1      17.267  35.146  15.028  1.00  0.00    -0.308 N 
ATOM     20  N   UNL     1      16.285  34.376  12.878  1.00  0.00    -0.289 N 
ATOM     21  C   UNL     1      17.358  34.351  13.833  1.00  0.00     0.324 C 
ATOM     22  H   UNL     1      15.473  35.006  13.079  1.00  0.00     0.173 HD
ATOM     23  O   UNL     1      18.371  33.626  13.636  1.00  0.00    -0.248 OA
ATOM     24  H   UNL     1      16.336  35.554  15.273  1.00  0.00     0.171 HD
BRANCH  20  25
ATOM     25  C   UNL     1      16.209  33.576  11.687  1.00  0.00     0.177 A 
ATOM     26  C   UNL     1      16.307  32.804   9.659  1.00  0.00     0.144 A 
ATOM     27  C   UNL     1      16.573  33.940  10.402  1.00  0.00     0.096 A 
ATOM     28  O   UNL     1      15.847  31.872  10.466  1.00  0.00    -0.359 OA
ATOM     29  N   UNL     1      15.775  32.301  11.691  1.00  0.00    -0.062 NA
BRANCH  26  30
ATOM     30  C   UNL     1      16.510  32.642   8.166  1.00  0.00     0.023 C 
ATOM     31  C   UNL     1      15.676  31.446   7.668  1.00  0.00     0.019 C 
ATOM     32  C   UNL     1      16.059  33.915   7.424  1.00  0.00     0.019 C 
ATOM     33  C   UNL     1      18.004  32.393   7.872  1.00  0.00     0.019 C 
ENDBRANCH  26  30
ENDBRANCH  20  25
ENDBRANCH  14  19
ENDBRANCH   1  13
BRANCH  10  34
ATOM     34  O   UNL     1      28.183  34.103  22.508  1.00  0.00    -0.492 OA
BRANCH  34  35
ATOM     35  C   UNL     1      29.124  33.064  22.237  1.00  0.00     0.245 C 
BRANCH  35  36
ATOM     36  C   UNL     1      29.726  33.263  20.840  1.00  0.00     0.126 C 
BRANCH  36  37
ATOM     37  N   UNL     1      30.002  31.970  20.177  1.00  0.00    -0.295 NA
ATOM     38  C   UNL     1      29.337  30.839  20.874  1.00  0.00     0.113 C 
ATOM     39  C   UNL     1      29.657  32.023  18.735  1.00  0.00     0.113 C 
ATOM     40  C   UNL     1      28.900  29.736  19.894  1.00  0.00     0.175 C 
ATOM     41  C   UNL     1      28.221  31.522  18.476  1.00  0.00     0.175 C 
ATOM     42  O   UNL     1      27.962  30.197  18.935  1.00  0.00    -0.379 OA
ENDBRANCH  36  37
ENDBRANCH  35  36
ENDBRANCH  34  35
ENDBRANCH  10  34
TORSDOF 8
ENDMDL
MODEL 11
REMARK VINA RESULT:    -8.503      8.435     14.149
REMARK INTER + INTRA:         -13.457
REMARK INTER:                 -12.183
REMARK INTRA:                  -1.274
REMARK UNBOUND:                -0.978
REMARK SMILES CC(C)(C)c1cc(NC(=O)Nc2ccc(-c3cn4c(n3)sc3cc(OCCN5CCOCC5)ccc34)cc2)no1
REMARK SMILES IDX 16 1 17 2 18 3 19 4 21 5 22 6 36 7 35 8 34 9 24 10 23 11
REMARK SMILES IDX 20 12 15 13 12 14 13 15 38 16 14 17 37 18 11 19 8 20 9 21
REMARK SMILES IDX 10 23 7 25 5 26 6 27 40 28 39 29 2 30 1 31 3 32 4 33 25 34
REMARK SMILES IDX 26 35 27 36 28 37 29 38 33 39 30 40 32 41 31 42
REMARK H PARENT 8 22 11 24
REMARK Flexibility Score: inf
ROOT
ATOM      1  C   UNL     1      23.903  34.245  17.449  1.00  0.00     0.090 A 
ATOM      2  C   UNL     1      24.534  33.072  17.884  1.00  0.00     0.123 A 
ATOM      3  N   UNL     1      25.757  33.448  18.263  1.00  0.00    -0.290 N 
ATOM      4  C   UNL     1      25.845  34.750  18.075  1.00  0.00     0.195 A 
ATOM      5  S   UNL     1      27.355  35.392  18.486  1.00  0.00    -0.096 S 
ATOM      6  C   UNL     1      27.900  33.830  18.930  1.00  0.00     0.058 A 
ATOM      7  C   UNL     1      26.885  32.889  18.749  1.00  0.00     0.065 A 
ATOM      8  C   UNL     1      27.082  31.548  19.060  1.00  0.00     0.032 A 
ATOM      9  C   UNL     1      28.341  31.158  19.552  1.00  0.00     0.048 A 
ATOM     10  C   UNL     1      29.383  32.108  19.713  1.00  0.00     0.120 A 
ATOM     11  C   UNL     1      29.155  33.458  19.397  1.00  0.00     0.067 A 
ATOM     12  N   UNL     1      24.736  35.321  17.580  1.00  0.00    -0.219 NA
ENDROOT
BRANCH   1  13
ATOM     13  C   UNL     1      22.544  34.348  16.872  1.00  0.00     0.002 A 
ATOM     14  C   UNL     1      20.028  34.480  15.594  1.00  0.00     0.042 A 
ATOM     15  C   UNL     1      20.981  35.497  15.400  1.00  0.00     0.027 A 
ATOM     16  C   UNL     1      20.316  33.437  16.487  1.00  0.00     0.027 A 
ATOM     17  C   UNL     1      22.228  35.423  16.024  1.00  0.00     0.012 A 
ATOM     18  C   UNL     1      21.564  33.366  17.116  1.00  0.00     0.012 A 
BRANCH  14  19
ATOM     19  N   UNL     1      18.755  34.512  14.925  1.00  0.00    -0.308 N 
ATOM     20  N   UNL     1      17.241  34.060  13.005  1.00  0.00    -0.289 N 
ATOM     21  C   UNL     1      18.495  33.851  13.674  1.00  0.00     0.324 C 
ATOM     22  H   UNL     1      16.561  34.721  13.449  1.00  0.00     0.173 HD
ATOM     23  O   UNL     1      19.362  33.081  13.178  1.00  0.00    -0.248 OA
ATOM     24  H   UNL     1      17.948  34.957  15.418  1.00  0.00     0.171 HD
BRANCH  20  25
ATOM     25  C   UNL     1      16.819  33.405  11.798  1.00  0.00     0.177 A 
ATOM     26  C   UNL     1      16.499  32.784   9.742  1.00  0.00     0.144 A 
ATOM     27  C   UNL     1      17.164  33.732  10.497  1.00  0.00     0.096 A 
ATOM     28  O   UNL     1      15.848  31.979  10.554  1.00  0.00    -0.359 OA
ATOM     29  N   UNL     1      16.019  32.323  11.797  1.00  0.00    -0.062 NA
BRANCH  26  30
ATOM     30  C   UNL     1      16.510  32.673   8.230  1.00  0.00     0.023 C 
ATOM     31  C   UNL     1      16.007  33.995   7.621  1.00  0.00     0.019 C 
ATOM     32  C   UNL     1      17.941  32.397   7.727  1.00  0.00     0.019 C 
ATOM     33  C   UNL     1      15.593  31.513   7.791  1.00  0.00     0.019 C 
ENDBRANCH  26  30
ENDBRANCH  20  25
ENDBRANCH  14  19
ENDBRANCH   1  13
BRANCH  10  34
ATOM     34  O   UNL     1      30.662  31.733  20.144  1.00  0.00    -0.492 OA
BRANCH  34  35
ATOM     35  C   UNL     1      31.636  31.086  19.324  1.00  0.00     0.245 C 
BRANCH  35  36
ATOM     36  C   UNL     1      32.253  32.104  18.355  1.00  0.00     0.126 C 
BRANCH  36  37
ATOM     37  N   UNL     1      32.257  31.597  16.965  1.00  0.00    -0.295 NA
ATOM     38  C   UNL     1      31.907  30.154  16.902  1.00  0.00     0.113 C 
ATOM     39  C   UNL     1      31.389  32.424  16.092  1.00  0.00     0.113 C 
ATOM     40  C   UNL     1      31.130  29.805  15.621  1.00  0.00     0.175 C 
ATOM     41  C   UNL     1      29.962  31.844  15.995  1.00  0.00     0.175 C 
ATOM     42  O   UNL     1      29.898  30.500  15.522  1.00  0.00    -0.379 OA
ENDBRANCH  36  37
ENDBRANCH  35  36
ENDBRANCH  34  35
ENDBRANCH  10  34
TORSDOF 8
ENDMDL
MODEL 12
REMARK VINA RESULT:    -8.413      6.106     14.856
REMARK INTER + INTRA:         -13.326
REMARK INTER:                 -12.419
REMARK INTRA:                  -0.907
REMARK UNBOUND:                -0.978
REMARK SMILES CC(C)(C)c1cc(NC(=O)Nc2ccc(-c3cn4c(n3)sc3cc(OCCN5CCOCC5)ccc34)cc2)no1
REMARK SMILES IDX 16 1 17 2 18 3 19 4 21 5 22 6 36 7 35 8 34 9 24 10 23 11
REMARK SMILES IDX 20 12 15 13 12 14 13 15 38 16 14 17 37 18 11 19 8 20 9 21
REMARK SMILES IDX 10 23 7 25 5 26 6 27 40 28 39 29 2 30 1 31 3 32 4 33 25 34
REMARK SMILES IDX 26 35 27 36 28 37 29 38 33 39 30 40 32 41 31 42
REMARK H PARENT 8 22 11 24
REMARK Flexibility Score: inf
ROOT
ATOM      1  C   UNL     1      20.114  35.170  16.468  1.00  0.00     0.090 A 
ATOM      2  C   UNL     1      20.650  35.955  17.498  1.00  0.00     0.123 A 
ATOM      3  N   UNL     1      19.595  36.452  18.148  1.00  0.00    -0.290 N 
ATOM      4  C   UNL     1      18.512  35.992  17.553  1.00  0.00     0.195 A 
ATOM      5  S   UNL     1      17.073  36.550  18.242  1.00  0.00    -0.096 S 
ATOM      6  C   UNL     1      17.970  37.454  19.387  1.00  0.00     0.058 A 
ATOM      7  C   UNL     1      19.340  37.272  19.188  1.00  0.00     0.065 A 
ATOM      8  C   UNL     1      20.276  37.892  20.010  1.00  0.00     0.032 A 
ATOM      9  C   UNL     1      19.807  38.722  21.044  1.00  0.00     0.048 A 
ATOM     10  C   UNL     1      18.416  38.928  21.233  1.00  0.00     0.120 A 
ATOM     11  C   UNL     1      17.491  38.286  20.393  1.00  0.00     0.067 A 
ATOM     12  N   UNL     1      18.748  35.184  16.508  1.00  0.00    -0.219 NA
ENDROOT
BRANCH   1  13
ATOM     13  C   UNL     1      20.879  34.450  15.425  1.00  0.00     0.002 A 
ATOM     14  C   UNL     1      22.507  33.113  13.543  1.00  0.00     0.042 A 
ATOM     15  C   UNL     1      22.439  34.518  13.557  1.00  0.00     0.027 A 
ATOM     16  C   UNL     1      21.700  32.382  14.428  1.00  0.00     0.027 A 
ATOM     17  C   UNL     1      21.642  35.177  14.496  1.00  0.00     0.012 A 
ATOM     18  C   UNL     1      20.898  33.042  15.366  1.00  0.00     0.012 A 
BRANCH  14  19
ATOM     19  N   UNL     1      23.356  32.416  12.614  1.00  0.00    -0.308 N 
ATOM     20  N   UNL     1      25.563  31.645  11.769  1.00  0.00    -0.289 N 
ATOM     21  C   UNL     1      24.767  32.221  12.816  1.00  0.00     0.324 C 
ATOM     22  H   UNL     1      25.082  31.409  10.870  1.00  0.00     0.173 HD
ATOM     23  O   UNL     1      25.295  32.545  13.915  1.00  0.00    -0.248 OA
ATOM     24  H   UNL     1      22.910  31.940  11.797  1.00  0.00     0.171 HD
BRANCH  20  25
ATOM     25  C   UNL     1      26.960  31.323  11.863  1.00  0.00     0.177 A 
ATOM     26  C   UNL     1      29.132  31.342  11.830  1.00  0.00     0.144 A 
ATOM     27  C   UNL     1      28.036  32.135  11.543  1.00  0.00     0.096 A 
ATOM     28  O   UNL     1      28.706  30.186  12.291  1.00  0.00    -0.359 OA
ATOM     29  N   UNL     1      27.406  30.140  12.325  1.00  0.00    -0.062 NA
BRANCH  26  30
ATOM     30  C   UNL     1      30.587  31.727  11.654  1.00  0.00     0.023 C 
ATOM     31  C   UNL     1      31.373  30.510  11.131  1.00  0.00     0.019 C 
ATOM     32  C   UNL     1      30.715  32.883  10.643  1.00  0.00     0.019 C 
ATOM     33  C   UNL     1      31.169  32.180  13.009  1.00  0.00     0.019 C 
ENDBRANCH  26  30
ENDBRANCH  20  25
ENDBRANCH  14  19
ENDBRANCH   1  13
BRANCH  10  34
ATOM     34  O   UNL     1      17.927  39.797  22.218  1.00  0.00    -0.492 OA
BRANCH  34  35
ATOM     35  C   UNL     1      18.137  41.210  22.229  1.00  0.00     0.245 C 
BRANCH  35  36
ATOM     36  C   UNL     1      17.216  41.876  21.198  1.00  0.00     0.126 C 
BRANCH  36  37
ATOM     37  N   UNL     1      16.472  43.011  21.786  1.00  0.00    -0.295 NA
ATOM     38  C   UNL     1      16.437  44.182  20.872  1.00  0.00     0.113 C 
ATOM     39  C   UNL     1      15.116  42.595  22.219  1.00  0.00     0.113 C 
ATOM     40  C   UNL     1      15.126  44.977  21.005  1.00  0.00     0.175 C 
ATOM     41  C   UNL     1      14.065  42.850  21.118  1.00  0.00     0.175 C 
ATOM     42  O   UNL     1      13.983  44.203  20.677  1.00  0.00    -0.379 OA
ENDBRANCH  36  37
ENDBRANCH  35  36
ENDBRANCH  34  35
ENDBRANCH  10  34
TORSDOF 8
ENDMDL
MODEL 13
REMARK VINA RESULT:    -8.250      6.545      8.155
REMARK INTER + INTRA:         -13.086
REMARK INTER:                 -12.434
REMARK INTRA:                  -0.652
REMARK UNBOUND:                -0.978
REMARK SMILES CC(C)(C)c1cc(NC(=O)Nc2ccc(-c3cn4c(n3)sc3cc(OCCN5CCOCC5)ccc34)cc2)no1
REMARK SMILES IDX 16 1 17 2 18 3 19 4 21 5 22 6 36 7 35 8 34 9 24 10 23 11
REMARK SMILES IDX 20 12 15 13 12 14 13 15 38 16 14 17 37 18 11 19 8 20 9 21
REMARK SMILES IDX 10 23 7 25 5 26 6 27 40 28 39 29 2 30 1 31 3 32 4 33 25 34
REMARK SMILES IDX 26 35 27 36 28 37 29 38 33 39 30 40 32 41 31 42
REMARK H PARENT 8 22 11 24
REMARK Flexibility Score: inf
ROOT
ATOM      1  C   UNL     1      20.485  34.093  16.265  1.00  0.00     0.090 A 
ATOM      2  C   UNL     1      20.650  33.500  15.006  1.00  0.00     0.123 A 
ATOM      3  N   UNL     1      19.470  33.632  14.395  1.00  0.00    -0.290 N 
ATOM      4  C   UNL     1      18.664  34.262  15.227  1.00  0.00     0.195 A 
ATOM      5  S   UNL     1      17.105  34.492  14.614  1.00  0.00    -0.096 S 
ATOM      6  C   UNL     1      17.556  33.695  13.166  1.00  0.00     0.058 A 
ATOM      7  C   UNL     1      18.893  33.299  13.222  1.00  0.00     0.065 A 
ATOM      8  C   UNL     1      19.497  32.647  12.152  1.00  0.00     0.032 A 
ATOM      9  C   UNL     1      18.719  32.381  11.011  1.00  0.00     0.048 A 
ATOM     10  C   UNL     1      17.353  32.760  10.960  1.00  0.00     0.120 A 
ATOM     11  C   UNL     1      16.768  33.424  12.053  1.00  0.00     0.067 A 
ATOM     12  N   UNL     1      19.219  34.590  16.404  1.00  0.00    -0.219 NA
ENDROOT
BRANCH   1  13
ATOM     13  C   UNL     1      21.493  34.151  17.347  1.00  0.00     0.002 A 
ATOM     14  C   UNL     1      23.272  34.206  19.540  1.00  0.00     0.042 A 
ATOM     15  C   UNL     1      22.383  35.273  19.316  1.00  0.00     0.027 A 
ATOM     16  C   UNL     1      23.315  33.148  18.619  1.00  0.00     0.027 A 
ATOM     17  C   UNL     1      21.497  35.238  18.237  1.00  0.00     0.012 A 
ATOM     18  C   UNL     1      22.430  33.115  17.535  1.00  0.00     0.012 A 
BRANCH  14  19
ATOM     19  N   UNL     1      24.162  34.200  20.670  1.00  0.00    -0.308 N 
ATOM     20  N   UNL     1      26.405  34.053  21.732  1.00  0.00    -0.289 N 
ATOM     21  C   UNL     1      25.596  34.211  20.556  1.00  0.00     0.324 C 
ATOM     22  H   UNL     1      25.911  33.906  22.643  1.00  0.00     0.173 HD
ATOM     23  O   UNL     1      26.135  34.373  19.428  1.00  0.00    -0.248 OA
ATOM     24  H   UNL     1      23.748  34.291  21.626  1.00  0.00     0.171 HD
BRANCH  20  25
ATOM     25  C   UNL     1      27.839  34.124  21.775  1.00  0.00     0.177 A 
ATOM     26  C   UNL     1      29.917  34.758  21.785  1.00  0.00     0.144 A 
ATOM     27  C   UNL     1      28.631  35.255  21.666  1.00  0.00     0.096 A 
ATOM     28  O   UNL     1      29.850  33.456  21.964  1.00  0.00    -0.359 OA
ATOM     29  N   UNL     1      28.617  33.042  21.964  1.00  0.00    -0.062 NA
BRANCH  26  30
ATOM     30  C   UNL     1      31.199  35.564  21.726  1.00  0.00     0.023 C 
ATOM     31  C   UNL     1      32.171  34.899  20.734  1.00  0.00     0.019 C 
ATOM     32  C   UNL     1      30.903  37.002  21.256  1.00  0.00     0.019 C 
ATOM     33  C   UNL     1      31.840  35.618  23.128  1.00  0.00     0.019 C 
ENDBRANCH  26  30
ENDBRANCH  20  25
ENDBRANCH  14  19
ENDBRANCH   1  13
BRANCH  10  34
ATOM     34  O   UNL     1      16.542  32.453   9.859  1.00  0.00    -0.492 OA
BRANCH  34  35
ATOM     35  C   UNL     1      16.981  32.471   8.500  1.00  0.00     0.245 C 
BRANCH  35  36
ATOM     36  C   UNL     1      17.205  31.034   8.011  1.00  0.00     0.126 C 
BRANCH  36  37
ATOM     37  N   UNL     1      16.221  30.654   6.973  1.00  0.00    -0.295 NA
ATOM     38  C   UNL     1      16.335  29.219   6.604  1.00  0.00     0.113 C 
ATOM     39  C   UNL     1      14.844  31.022   7.382  1.00  0.00     0.113 C 
ATOM     40  C   UNL     1      14.970  28.610   6.236  1.00  0.00     0.175 C 
ATOM     41  C   UNL     1      14.127  29.849   8.084  1.00  0.00     0.175 C 
ATOM     42  O   UNL     1      14.045  28.655   7.310  1.00  0.00    -0.379 OA
ENDBRANCH  36  37
ENDBRANCH  35  36
ENDBRANCH  34  35
ENDBRANCH  10  34
TORSDOF 8
ENDMDL
MODEL 14
REMARK VINA RESULT:    -8.238      6.207      7.429
REMARK INTER + INTRA:         -13.069
REMARK INTER:                 -12.296
REMARK INTRA:                  -0.773
REMARK UNBOUND:                -0.978
REMARK SMILES CC(C)(C)c1cc(NC(=O)Nc2ccc(-c3cn4c(n3)sc3cc(OCCN5CCOCC5)ccc34)cc2)no1
REMARK SMILES IDX 16 1 17 2 18 3 19 4 21 5 22 6 36 7 35 8 34 9 24 10 23 11
REMARK SMILES IDX 20 12 15 13 12 14 13 15 38 16 14 17 37 18 11 19 8 20 9 21
REMARK SMILES IDX 10 23 7 25 5 26 6 27 40 28 39 29 2 30 1 31 3 32 4 33 25 34
REMARK SMILES IDX 26 35 27 36 28 37 29 38 33 39 30 40 32 41 31 42
REMARK H PARENT 8 22 11 24
REMARK Flexibility Score: inf
ROOT
ATOM      1  C   UNL     1      21.122  33.495  15.670  1.00  0.00     0.090 A 
ATOM      2  C   UNL     1      19.865  33.971  15.275  1.00  0.00     0.123 A 
ATOM      3  N   UNL     1      19.665  33.471  14.053  1.00  0.00    -0.290 N 
ATOM      4  C   UNL     1      20.723  32.746  13.746  1.00  0.00     0.195 A 
ATOM      5  S   UNL     1      20.643  32.053  12.206  1.00  0.00    -0.096 S 
ATOM      6  C   UNL     1      19.112  32.779  11.957  1.00  0.00     0.058 A 
ATOM      7  C   UNL     1      18.731  33.513  13.081  1.00  0.00     0.065 A 
ATOM      8  C   UNL     1      17.511  34.181  13.126  1.00  0.00     0.032 A 
ATOM      9  C   UNL     1      16.672  34.109  11.999  1.00  0.00     0.048 A 
ATOM     10  C   UNL     1      17.068  33.384  10.845  1.00  0.00     0.120 A 
ATOM     11  C   UNL     1      18.303  32.714  10.828  1.00  0.00     0.067 A 
ATOM     12  N   UNL     1      21.668  32.703  14.698  1.00  0.00    -0.219 NA
ENDROOT
BRANCH   1  13
ATOM     13  C   UNL     1      21.827  33.819  16.930  1.00  0.00     0.002 A 
ATOM     14  C   UNL     1      23.006  34.380  19.435  1.00  0.00     0.042 A 
ATOM     15  C   UNL     1      22.089  35.280  18.861  1.00  0.00     0.027 A 
ATOM     16  C   UNL     1      23.382  33.237  18.714  1.00  0.00     0.027 A 
ATOM     17  C   UNL     1      21.499  34.995  17.627  1.00  0.00     0.012 A 
ATOM     18  C   UNL     1      22.794  32.953  17.476  1.00  0.00     0.012 A 
BRANCH  14  19
ATOM     19  N   UNL     1      23.590  34.632  20.725  1.00  0.00    -0.308 N 
ATOM     20  N   UNL     1      25.512  34.945  22.271  1.00  0.00    -0.289 N 
ATOM     21  C   UNL     1      24.997  34.850  20.933  1.00  0.00     0.324 C 
ATOM     22  H   UNL     1      24.835  34.822  23.060  1.00  0.00     0.173 HD
ATOM     23  O   UNL     1      25.768  34.971  19.943  1.00  0.00    -0.248 OA
ATOM     24  H   UNL     1      22.951  34.760  21.542  1.00  0.00     0.171 HD
BRANCH  20  25
ATOM     25  C   UNL     1      26.874  35.239  22.622  1.00  0.00     0.177 A 
ATOM     26  C   UNL     1      28.742  36.183  23.202  1.00  0.00     0.144 A 
ATOM     27  C   UNL     1      27.416  36.474  22.937  1.00  0.00     0.096 A 
ATOM     28  O   UNL     1      28.925  34.888  23.064  1.00  0.00    -0.359 OA
ATOM     29  N   UNL     1      27.823  34.289  22.717  1.00  0.00    -0.062 NA
BRANCH  26  30
ATOM     30  C   UNL     1      29.817  37.178  23.592  1.00  0.00     0.023 C 
ATOM     31  C   UNL     1      31.191  36.635  23.158  1.00  0.00     0.019 C 
ATOM     32  C   UNL     1      29.567  38.532  22.900  1.00  0.00     0.019 C 
ATOM     33  C   UNL     1      29.798  37.386  25.121  1.00  0.00     0.019 C 
ENDBRANCH  26  30
ENDBRANCH  20  25
ENDBRANCH  14  19
ENDBRANCH   1  13
BRANCH  10  34
ATOM     34  O   UNL     1      16.276  33.348   9.689  1.00  0.00    -0.492 OA
BRANCH  34  35
ATOM     35  C   UNL     1      16.682  32.772   8.448  1.00  0.00     0.245 C 
BRANCH  35  36
ATOM     36  C   UNL     1      15.646  31.733   7.998  1.00  0.00     0.126 C 
BRANCH  36  37
ATOM     37  N   UNL     1      16.125  30.956   6.834  1.00  0.00    -0.295 NA
ATOM     38  C   UNL     1      17.564  30.607   6.958  1.00  0.00     0.113 C 
ATOM     39  C   UNL     1      15.275  29.763   6.600  1.00  0.00     0.113 C 
ATOM     40  C   UNL     1      17.882  29.243   6.319  1.00  0.00     0.175 C 
ATOM     41  C   UNL     1      15.844  28.514   7.304  1.00  0.00     0.175 C 
ATOM     42  O   UNL     1      17.177  28.175   6.930  1.00  0.00    -0.379 OA
ENDBRANCH  36  37
ENDBRANCH  35  36
ENDBRANCH  34  35
ENDBRANCH  10  34
TORSDOF 8
ENDMDL
MODEL 15
REMARK VINA RESULT:    -8.223      3.704      4.616
REMARK INTER + INTRA:         -13.047
REMARK INTER:                 -12.277
REMARK INTRA:                  -0.770
REMARK UNBOUND:                -0.978
REMARK SMILES CC(C)(C)c1cc(NC(=O)Nc2ccc(-c3cn4c(n3)sc3cc(OCCN5CCOCC5)ccc34)cc2)no1
REMARK SMILES IDX 16 1 17 2 18 3 19 4 21 5 22 6 36 7 35 8 34 9 24 10 23 11
REMARK SMILES IDX 20 12 15 13 12 14 13 15 38 16 14 17 37 18 11 19 8 20 9 21
REMARK SMILES IDX 10 23 7 25 5 26 6 27 40 28 39 29 2 30 1 31 3 32 4 33 25 34
REMARK SMILES IDX 26 35 27 36 28 37 29 38 33 39 30 40 32 41 31 42
REMARK H PARENT 8 22 11 24
REMARK Flexibility Score: inf
ROOT
ATOM      1  C   UNL     1      17.631  35.324  16.863  1.00  0.00     0.090 A 
ATOM      2  C   UNL     1      18.496  34.784  15.902  1.00  0.00     0.123 A 
ATOM      3  N   UNL     1      17.708  34.385  14.901  1.00  0.00    -0.290 N 
ATOM      4  C   UNL     1      16.465  34.671  15.239  1.00  0.00     0.195 A 
ATOM      5  S   UNL     1      15.325  34.204  14.082  1.00  0.00    -0.096 S 
ATOM      6  C   UNL     1      16.580  33.586  13.093  1.00  0.00     0.058 A 
ATOM      7  C   UNL     1      17.821  33.780  13.700  1.00  0.00     0.065 A 
ATOM      8  C   UNL     1      18.999  33.378  13.078  1.00  0.00     0.032 A 
ATOM      9  C   UNL     1      18.907  32.754  11.821  1.00  0.00     0.048 A 
ATOM     10  C   UNL     1      17.645  32.533  11.212  1.00  0.00     0.120 A 
ATOM     11  C   UNL     1      16.470  32.954  11.859  1.00  0.00     0.067 A 
ATOM     12  N   UNL     1      16.333  35.262  16.437  1.00  0.00    -0.219 NA
ENDROOT
BRANCH   1  13
ATOM     13  C   UNL     1      18.015  35.850  18.192  1.00  0.00     0.002 A 
ATOM     14  C   UNL     1      18.940  36.822  20.678  1.00  0.00     0.042 A 
ATOM     15  C   UNL     1      18.859  35.438  20.439  1.00  0.00     0.027 A 
ATOM     16  C   UNL     1      18.487  37.712  19.692  1.00  0.00     0.027 A 
ATOM     17  C   UNL     1      18.411  34.960  19.204  1.00  0.00     0.012 A 
ATOM     18  C   UNL     1      18.035  37.234  18.457  1.00  0.00     0.012 A 
BRANCH  14  19
ATOM     19  N   UNL     1      19.441  37.336  21.924  1.00  0.00    -0.308 N 
ATOM     20  N   UNL     1      21.258  38.047  23.465  1.00  0.00    -0.289 N 
ATOM     21  C   UNL     1      20.819  37.683  22.146  1.00  0.00     0.324 C 
ATOM     22  H   UNL     1      20.550  38.018  24.236  1.00  0.00     0.173 HD
ATOM     23  O   UNL     1      21.632  37.680  21.182  1.00  0.00    -0.248 OA
ATOM     24  H   UNL     1      18.754  37.561  22.679  1.00  0.00     0.171 HD
BRANCH  20  25
ATOM     25  C   UNL     1      22.580  38.490  23.813  1.00  0.00     0.177 A 
ATOM     26  C   UNL     1      24.706  38.651  24.223  1.00  0.00     0.144 A 
ATOM     27  C   UNL     1      23.742  37.738  23.838  1.00  0.00     0.096 A 
ATOM     28  O   UNL     1      24.134  39.825  24.385  1.00  0.00    -0.359 OA
ATOM     29  N   UNL     1      22.857  39.765  24.145  1.00  0.00    -0.062 NA
BRANCH  26  30
ATOM     30  C   UNL     1      26.181  38.366  24.426  1.00  0.00     0.023 C 
ATOM     31  C   UNL     1      26.961  39.694  24.407  1.00  0.00     0.019 C 
ATOM     32  C   UNL     1      26.407  37.667  25.781  1.00  0.00     0.019 C 
ATOM     33  C   UNL     1      26.689  37.446  23.297  1.00  0.00     0.019 C 
ENDBRANCH  26  30
ENDBRANCH  20  25
ENDBRANCH  14  19
ENDBRANCH   1  13
BRANCH  10  34
ATOM     34  O   UNL     1      17.524  31.860   9.989  1.00  0.00    -0.492 OA
BRANCH  34  35
ATOM     35  C   UNL     1      17.136  32.476   8.760  1.00  0.00     0.245 C 
BRANCH  35  36
ATOM     36  C   UNL     1      15.922  31.743   8.175  1.00  0.00     0.126 C 
BRANCH  36  37
ATOM     37  N   UNL     1      16.277  30.999   6.946  1.00  0.00    -0.295 NA
ATOM     38  C   UNL     1      17.709  30.602   6.935  1.00  0.00     0.113 C 
ATOM     39  C   UNL     1      15.372  29.842   6.741  1.00  0.00     0.113 C 
ATOM     40  C   UNL     1      17.927  29.257   6.221  1.00  0.00     0.175 C 
ATOM     41  C   UNL     1      15.955  28.549   7.348  1.00  0.00     0.175 C 
ATOM     42  O   UNL     1      17.241  28.187   6.850  1.00  0.00    -0.379 OA
ENDBRANCH  36  37
ENDBRANCH  35  36
ENDBRANCH  34  35
ENDBRANCH  10  34
TORSDOF 8
ENDMDL
