MODEL 1
REMARK VINA RESULT:    -9.721      0.000      0.000
REMARK INTER + INTRA:         -16.560
REMARK INTER:                 -14.836
REMARK INTRA:                  -1.723
REMARK UNBOUND:                -1.723
REMARK SMILES CCc1nc(C(N)=O)c(Nc2ccc(N3CCC(N4CCN(C)CC4)CC3)c(OC)c2)nc1NC1CCOCC1
REMARK SMILES IDX 10 1 9 3 3 4 33 5 4 6 32 7 5 8 2 9 1 10 34 11 35 13 36 14
REMARK SMILES IDX 40 15 37 16 39 17 38 18 6 19 7 20 8 21 11 24 12 25 31 26
REMARK SMILES IDX 13 27 28 28 14 29 29 30 30 31 15 32 16 33 27 34 17 35 26 36
REMARK SMILES IDX 18 37 19 38 20 39 25 40 21 41 24 42 22 43 23 44
REMARK H PARENT 10 2 34 12 7 22 7 23
REMARK Flexibility Score: inf
ROOT
ATOM      1  N   UNL     1      19.797  34.815  16.503  1.00  0.00    -0.338 N 
ATOM      2  H   UNL     1      19.908  35.376  17.376  1.00  0.00     0.168 HD
ENDROOT
BRANCH   1   3
ATOM      3  C   UNL     1      18.466  34.642  16.002  1.00  0.00     0.164 A 
ATOM      4  C   UNL     1      15.937  34.152  14.991  1.00  0.00     0.084 A 
ATOM      5  C   UNL     1      17.078  34.008  14.171  1.00  0.00     0.150 A 
ATOM      6  N   UNL     1      16.105  34.561  16.276  1.00  0.00    -0.240 NA
ATOM      7  N   UNL     1      18.301  34.260  14.710  1.00  0.00    -0.209 NA
ATOM      8  C   UNL     1      17.326  34.816  16.816  1.00  0.00     0.171 A 
BRANCH   4   9
ATOM      9  C   UNL     1      14.533  33.922  14.497  1.00  0.00     0.057 C 
ATOM     10  C   UNL     1      13.510  34.612  15.395  1.00  0.00     0.011 C 
ENDBRANCH   4   9
BRANCH   5  11
ATOM     11  N   UNL     1      16.984  33.594  12.794  1.00  0.00    -0.366 N 
ATOM     12  H   UNL     1      16.414  32.757  12.547  1.00  0.00     0.162 HD
BRANCH  11  13
ATOM     13  C   UNL     1      17.723  34.276  11.721  1.00  0.00     0.085 C 
ATOM     14  C   UNL     1      18.927  33.430  11.269  1.00  0.00     0.053 C 
ATOM     15  C   UNL     1      16.797  34.558  10.517  1.00  0.00     0.053 C 
ATOM     16  C   UNL     1      18.477  32.160  10.506  1.00  0.00     0.162 C 
ATOM     17  C   UNL     1      16.753  33.372   9.532  1.00  0.00     0.162 C 
ATOM     18  O   UNL     1      17.095  32.164  10.180  1.00  0.00    -0.381 OA
ENDBRANCH  11  13
ENDBRANCH   5  11
BRANCH   8  19
ATOM     19  C   UNL     1      17.399  35.288  18.219  1.00  0.00     0.271 C 
ATOM     20  N   UNL     1      16.763  36.509  18.607  1.00  0.00    -0.364 N 
ATOM     21  O   UNL     1      18.039  34.632  19.086  1.00  0.00    -0.268 OA
ATOM     22  H   UNL     1      16.222  37.081  17.922  1.00  0.00     0.160 HD
ATOM     23  H   UNL     1      16.818  36.834  19.598  1.00  0.00     0.160 HD
ENDBRANCH   8  19
ENDBRANCH   1   3
BRANCH   1  24
ATOM     24  C   UNL     1      20.976  34.495  15.738  1.00  0.00     0.043 A 
ATOM     25  C   UNL     1      21.648  33.291  15.986  1.00  0.00     0.028 A 
ATOM     26  C   UNL     1      21.484  35.375  14.763  1.00  0.00     0.074 A 
ATOM     27  C   UNL     1      22.801  32.962  15.272  1.00  0.00     0.032 A 
ATOM     28  C   UNL     1      22.650  35.052  14.040  1.00  0.00     0.144 A 
ATOM     29  C   UNL     1      23.307  33.833  14.297  1.00  0.00     0.079 A 
BRANCH  28  30
ATOM     30  O   UNL     1      23.191  35.924  13.080  1.00  0.00    -0.495 OA
ATOM     31  C   UNL     1      23.717  37.215  13.365  1.00  0.00     0.278 C 
ENDBRANCH  28  30
BRANCH  29  32
ATOM     32  N   UNL     1      24.507  33.479  13.586  1.00  0.00    -0.368 N 
ATOM     33  C   UNL     1      24.450  32.689  12.351  1.00  0.00     0.118 C 
ATOM     34  C   UNL     1      25.802  34.024  14.010  1.00  0.00     0.118 C 
ATOM     35  C   UNL     1      25.485  31.561  12.403  1.00  0.00     0.040 C 
ATOM     36  C   UNL     1      26.837  32.899  14.096  1.00  0.00     0.040 C 
ATOM     37  C   UNL     1      26.882  32.110  12.762  1.00  0.00     0.060 C 
BRANCH  37  38
ATOM     38  N   UNL     1      27.896  31.022  12.740  1.00  0.00    -0.298 NA
ATOM     39  C   UNL     1      29.092  31.223  13.600  1.00  0.00     0.100 C 
ATOM     40  C   UNL     1      28.207  30.573  11.363  1.00  0.00     0.100 C 
ATOM     41  C   UNL     1      30.361  31.472  12.773  1.00  0.00     0.099 C 
ATOM     42  C   UNL     1      29.440  29.658  11.344  1.00  0.00     0.099 C 
ATOM     43  N   UNL     1      30.654  30.329  11.877  1.00  0.00    -0.304 NA
ATOM     44  C   UNL     1      31.556  30.749  10.793  1.00  0.00     0.105 C 
ENDBRANCH  37  38
ENDBRANCH  29  32
ENDBRANCH   1  24
TORSDOF 9
ENDMDL
MODEL 2
REMARK VINA RESULT:    -9.704      1.058      1.243
REMARK INTER + INTRA:         -16.533
REMARK INTER:                 -14.921
REMARK INTRA:                  -1.612
REMARK UNBOUND:                -1.723
REMARK SMILES CCc1nc(C(N)=O)c(Nc2ccc(N3CCC(N4CCN(C)CC4)CC3)c(OC)c2)nc1NC1CCOCC1
REMARK SMILES IDX 10 1 9 3 3 4 33 5 4 6 32 7 5 8 2 9 1 10 34 11 35 13 36 14
REMARK SMILES IDX 40 15 37 16 39 17 38 18 6 19 7 20 8 21 11 24 12 25 31 26
REMARK SMILES IDX 13 27 28 28 14 29 29 30 30 31 15 32 16 33 27 34 17 35 26 36
REMARK SMILES IDX 18 37 19 38 20 39 25 40 21 41 24 42 22 43 23 44
REMARK H PARENT 10 2 34 12 7 22 7 23
REMARK Flexibility Score: inf
ROOT
ATOM      1  N   UNL     1      20.628  33.485  16.399  1.00  0.00    -0.338 N 
ATOM      2  H   UNL     1      20.814  33.445  17.426  1.00  0.00     0.168 HD
ENDROOT
BRANCH   1   3
ATOM      3  C   UNL     1      19.291  33.797  15.989  1.00  0.00     0.164 A 
ATOM      4  C   UNL     1      16.691  34.238  15.153  1.00  0.00     0.084 A 
ATOM      5  C   UNL     1      17.649  33.705  14.264  1.00  0.00     0.150 A 
ATOM      6  N   UNL     1      17.078  34.554  16.417  1.00  0.00    -0.240 NA
ATOM      7  N   UNL     1      18.915  33.505  14.718  1.00  0.00    -0.209 NA
ATOM      8  C   UNL     1      18.344  34.358  16.872  1.00  0.00     0.171 A 
BRANCH   4   9
ATOM      9  C   UNL     1      15.265  34.523  14.756  1.00  0.00     0.057 C 
ATOM     10  C   UNL     1      14.303  34.236  15.904  1.00  0.00     0.011 C 
ENDBRANCH   4   9
BRANCH   5  11
ATOM     11  N   UNL     1      17.322  33.359  12.904  1.00  0.00    -0.366 N 
ATOM     12  H   UNL     1      16.719  32.529  12.716  1.00  0.00     0.162 HD
BRANCH  11  13
ATOM     13  C   UNL     1      17.867  34.100  11.756  1.00  0.00     0.085 C 
ATOM     14  C   UNL     1      19.013  33.312  11.097  1.00  0.00     0.053 C 
ATOM     15  C   UNL     1      16.759  34.385  10.718  1.00  0.00     0.053 C 
ATOM     16  C   UNL     1      18.491  32.051  10.366  1.00  0.00     0.162 C 
ATOM     17  C   UNL     1      16.602  33.230   9.710  1.00  0.00     0.162 C 
ATOM     18  O   UNL     1      17.076  32.015  10.253  1.00  0.00    -0.381 OA
ENDBRANCH  11  13
ENDBRANCH   5  11
BRANCH   8  19
ATOM     19  C   UNL     1      18.674  34.766  18.258  1.00  0.00     0.271 C 
ATOM     20  N   UNL     1      17.661  35.300  19.116  1.00  0.00    -0.364 N 
ATOM     21  O   UNL     1      19.853  34.669  18.695  1.00  0.00    -0.268 OA
ATOM     22  H   UNL     1      16.672  35.397  18.795  1.00  0.00     0.160 HD
ATOM     23  H   UNL     1      17.901  35.584  20.092  1.00  0.00     0.160 HD
ENDBRANCH   8  19
ENDBRANCH   1   3
BRANCH   1  24
ATOM     24  C   UNL     1      21.753  33.494  15.497  1.00  0.00     0.043 A 
ATOM     25  C   UNL     1      22.593  32.375  15.438  1.00  0.00     0.028 A 
ATOM     26  C   UNL     1      22.042  34.612  14.691  1.00  0.00     0.074 A 
ATOM     27  C   UNL     1      23.698  32.361  14.587  1.00  0.00     0.032 A 
ATOM     28  C   UNL     1      23.159  34.608  13.831  1.00  0.00     0.144 A 
ATOM     29  C   UNL     1      23.988  33.470  13.779  1.00  0.00     0.079 A 
BRANCH  28  30
ATOM     30  O   UNL     1      23.484  35.720  13.035  1.00  0.00    -0.495 OA
ATOM     31  C   UNL     1      23.935  36.971  13.539  1.00  0.00     0.278 C 
ENDBRANCH  28  30
BRANCH  29  32
ATOM     32  N   UNL     1      25.143  33.439  12.922  1.00  0.00    -0.368 N 
ATOM     33  C   UNL     1      25.030  33.042  11.513  1.00  0.00     0.118 C 
ATOM     34  C   UNL     1      26.434  33.939  13.407  1.00  0.00     0.118 C 
ATOM     35  C   UNL     1      26.131  32.036  11.162  1.00  0.00     0.040 C 
ATOM     36  C   UNL     1      27.538  32.927  13.090  1.00  0.00     0.040 C 
ATOM     37  C   UNL     1      27.518  32.569  11.582  1.00  0.00     0.060 C 
BRANCH  37  38
ATOM     38  N   UNL     1      28.590  31.622  11.174  1.00  0.00    -0.298 NA
ATOM     39  C   UNL     1      28.539  30.269  11.789  1.00  0.00     0.100 C 
ATOM     40  C   UNL     1      29.931  32.248  11.196  1.00  0.00     0.100 C 
ATOM     41  C   UNL     1      29.686  30.046  12.784  1.00  0.00     0.099 C 
ATOM     42  C   UNL     1      31.038  31.195  11.044  1.00  0.00     0.099 C 
ATOM     43  N   UNL     1      31.005  30.176  12.125  1.00  0.00    -0.304 NA
ATOM     44  C   UNL     1      32.054  30.422  13.127  1.00  0.00     0.105 C 
ENDBRANCH  37  38
ENDBRANCH  29  32
ENDBRANCH   1  24
TORSDOF 9
ENDMDL
MODEL 3
REMARK VINA RESULT:    -9.423      0.972      1.012
REMARK INTER + INTRA:         -16.104
REMARK INTER:                 -14.277
REMARK INTRA:                  -1.827
REMARK UNBOUND:                -1.723
REMARK SMILES CCc1nc(C(N)=O)c(Nc2ccc(N3CCC(N4CCN(C)CC4)CC3)c(OC)c2)nc1NC1CCOCC1
REMARK SMILES IDX 10 1 9 3 3 4 33 5 4 6 32 7 5 8 2 9 1 10 34 11 35 13 36 14
REMARK SMILES IDX 40 15 37 16 39 17 38 18 6 19 7 20 8 21 11 24 12 25 31 26
REMARK SMILES IDX 13 27 28 28 14 29 29 30 30 31 15 32 16 33 27 34 17 35 26 36
REMARK SMILES IDX 18 37 19 38 20 39 25 40 21 41 24 42 22 43 23 44
REMARK H PARENT 10 2 34 12 7 22 7 23
REMARK Flexibility Score: inf
ROOT
ATOM      1  N   UNL     1      20.127  34.495  17.434  1.00  0.00    -0.338 N 
ATOM      2  H   UNL     1      20.141  34.832  18.422  1.00  0.00     0.168 HD
ENDROOT
BRANCH   1   3
ATOM      3  C   UNL     1      18.857  34.469  16.771  1.00  0.00     0.164 A 
ATOM      4  C   UNL     1      16.425  34.254  15.469  1.00  0.00     0.084 A 
ATOM      5  C   UNL     1      17.617  33.845  14.833  1.00  0.00     0.150 A 
ATOM      6  N   UNL     1      16.499  34.779  16.721  1.00  0.00    -0.240 NA
ATOM      7  N   UNL     1      18.790  33.970  15.511  1.00  0.00    -0.209 NA
ATOM      8  C   UNL     1      17.671  34.907  17.399  1.00  0.00     0.171 A 
BRANCH   4   9
ATOM      9  C   UNL     1      15.073  34.184  14.808  1.00  0.00     0.057 C 
ATOM     10  C   UNL     1      13.966  34.614  15.766  1.00  0.00     0.011 C 
ENDBRANCH   4   9
BRANCH   5  11
ATOM     11  N   UNL     1      17.625  33.294  13.502  1.00  0.00    -0.366 N 
ATOM     12  H   UNL     1      17.471  32.271  13.369  1.00  0.00     0.162 HD
BRANCH  11  13
ATOM     13  C   UNL     1      17.913  34.116  12.317  1.00  0.00     0.085 C 
ATOM     14  C   UNL     1      19.097  33.532  11.526  1.00  0.00     0.053 C 
ATOM     15  C   UNL     1      16.668  34.212  11.407  1.00  0.00     0.053 C 
ATOM     16  C   UNL     1      18.718  32.202  10.831  1.00  0.00     0.162 C 
ATOM     17  C   UNL     1      16.599  33.047  10.399  1.00  0.00     0.162 C 
ATOM     18  O   UNL     1      17.325  31.928  10.868  1.00  0.00    -0.381 OA
ENDBRANCH  11  13
ENDBRANCH   5  11
BRANCH   8  19
ATOM     19  C   UNL     1      17.648  35.522  18.747  1.00  0.00     0.271 C 
ATOM     20  N   UNL     1      17.153  36.851  18.929  1.00  0.00    -0.364 N 
ATOM     21  O   UNL     1      18.084  34.891  19.749  1.00  0.00    -0.268 OA
ATOM     22  H   UNL     1      16.782  37.407  18.127  1.00  0.00     0.160 HD
ATOM     23  H   UNL     1      17.140  37.277  19.883  1.00  0.00     0.160 HD
ENDBRANCH   8  19
ENDBRANCH   1   3
BRANCH   1  24
ATOM     24  C   UNL     1      21.382  34.344  16.742  1.00  0.00     0.043 A 
ATOM     25  C   UNL     1      22.002  33.088  16.713  1.00  0.00     0.028 A 
ATOM     26  C   UNL     1      22.012  35.435  16.113  1.00  0.00     0.074 A 
ATOM     27  C   UNL     1      23.225  32.916  16.064  1.00  0.00     0.032 A 
ATOM     28  C   UNL     1      23.250  35.270  15.458  1.00  0.00     0.144 A 
ATOM     29  C   UNL     1      23.855  33.999  15.433  1.00  0.00     0.079 A 
BRANCH  28  30
ATOM     30  O   UNL     1      23.912  36.348  14.844  1.00  0.00    -0.495 OA
ATOM     31  C   UNL     1      23.514  36.949  13.618  1.00  0.00     0.278 C 
ENDBRANCH  28  30
BRANCH  29  32
ATOM     32  N   UNL     1      25.124  33.799  14.784  1.00  0.00    -0.368 N 
ATOM     33  C   UNL     1      25.199  33.399  13.374  1.00  0.00     0.118 C 
ATOM     34  C   UNL     1      26.369  34.130  15.486  1.00  0.00     0.118 C 
ATOM     35  C   UNL     1      26.199  32.250  13.208  1.00  0.00     0.040 C 
ATOM     36  C   UNL     1      27.364  32.974  15.354  1.00  0.00     0.040 C 
ATOM     37  C   UNL     1      27.553  32.598  13.862  1.00  0.00     0.060 C 
BRANCH  37  38
ATOM     38  N   UNL     1      28.541  31.510  13.635  1.00  0.00    -0.298 NA
ATOM     39  C   UNL     1      29.940  31.797  14.047  1.00  0.00     0.100 C 
ATOM     40  C   UNL     1      28.416  30.911  12.286  1.00  0.00     0.100 C 
ATOM     41  C   UNL     1      30.877  31.948  12.841  1.00  0.00     0.099 C 
ATOM     42  C   UNL     1      29.608  29.994  11.975  1.00  0.00     0.099 C 
ATOM     43  N   UNL     1      30.907  30.713  12.024  1.00  0.00    -0.304 NA
ATOM     44  C   UNL     1      31.409  31.008  10.672  1.00  0.00     0.105 C 
ENDBRANCH  37  38
ENDBRANCH  29  32
ENDBRANCH   1  24
TORSDOF 9
ENDMDL
MODEL 4
REMARK VINA RESULT:    -9.179      1.450      2.003
REMARK INTER + INTRA:         -15.732
REMARK INTER:                 -13.777
REMARK INTRA:                  -1.955
REMARK UNBOUND:                -1.723
REMARK SMILES CCc1nc(C(N)=O)c(Nc2ccc(N3CCC(N4CCN(C)CC4)CC3)c(OC)c2)nc1NC1CCOCC1
REMARK SMILES IDX 10 1 9 3 3 4 33 5 4 6 32 7 5 8 2 9 1 10 34 11 35 13 36 14
REMARK SMILES IDX 40 15 37 16 39 17 38 18 6 19 7 20 8 21 11 24 12 25 31 26
REMARK SMILES IDX 13 27 28 28 14 29 29 30 30 31 15 32 16 33 27 34 17 35 26 36
REMARK SMILES IDX 18 37 19 38 20 39 25 40 21 41 24 42 22 43 23 44
REMARK H PARENT 10 2 34 12 7 22 7 23
REMARK Flexibility Score: inf
ROOT
ATOM      1  N   UNL     1      20.065  36.590  16.238  1.00  0.00    -0.338 N 
ATOM      2  H   UNL     1      20.102  37.580  16.565  1.00  0.00     0.168 HD
ENDROOT
BRANCH   1   3
ATOM      3  C   UNL     1      18.775  35.967  16.184  1.00  0.00     0.164 A 
ATOM      4  C   UNL     1      16.359  34.630  16.013  1.00  0.00     0.084 A 
ATOM      5  C   UNL     1      17.141  34.848  14.858  1.00  0.00     0.150 A 
ATOM      6  N   UNL     1      16.804  35.113  17.204  1.00  0.00    -0.240 NA
ATOM      7  N   UNL     1      18.322  35.510  14.989  1.00  0.00    -0.209 NA
ATOM      8  C   UNL     1      17.982  35.778  17.336  1.00  0.00     0.171 A 
BRANCH   4   9
ATOM      9  C   UNL     1      15.025  33.929  15.985  1.00  0.00     0.057 C 
ATOM     10  C   UNL     1      13.912  34.877  15.548  1.00  0.00     0.011 C 
ENDBRANCH   4   9
BRANCH   5  11
ATOM     11  N   UNL     1      16.733  34.382  13.558  1.00  0.00    -0.366 N 
ATOM     12  H   UNL     1      16.101  34.972  12.975  1.00  0.00     0.162 HD
BRANCH  11  13
ATOM     13  C   UNL     1      17.123  33.060  13.043  1.00  0.00     0.085 C 
ATOM     14  C   UNL     1      16.275  32.684  11.816  1.00  0.00     0.053 C 
ATOM     15  C   UNL     1      18.622  33.042  12.673  1.00  0.00     0.053 C 
ATOM     16  C   UNL     1      16.633  33.555  10.587  1.00  0.00     0.162 C 
ATOM     17  C   UNL     1      18.864  33.514  11.225  1.00  0.00     0.162 C 
ATOM     18  O   UNL     1      17.805  34.334  10.775  1.00  0.00    -0.381 OA
ENDBRANCH  11  13
ENDBRANCH   5  11
BRANCH   8  19
ATOM     19  C   UNL     1      18.362  36.293  18.673  1.00  0.00     0.271 C 
ATOM     20  N   UNL     1      18.393  35.418  19.804  1.00  0.00    -0.364 N 
ATOM     21  O   UNL     1      18.643  37.511  18.838  1.00  0.00    -0.268 OA
ATOM     22  H   UNL     1      18.169  34.402  19.712  1.00  0.00     0.160 HD
ATOM     23  H   UNL     1      18.662  35.788  20.743  1.00  0.00     0.160 HD
ENDBRANCH   8  19
ENDBRANCH   1   3
BRANCH   1  24
ATOM     24  C   UNL     1      21.240  36.025  15.623  1.00  0.00     0.043 A 
ATOM     25  C   UNL     1      21.743  36.602  14.448  1.00  0.00     0.028 A 
ATOM     26  C   UNL     1      21.882  34.893  16.159  1.00  0.00     0.074 A 
ATOM     27  C   UNL     1      22.869  36.067  13.822  1.00  0.00     0.032 A 
ATOM     28  C   UNL     1      23.018  34.344  15.531  1.00  0.00     0.144 A 
ATOM     29  C   UNL     1      23.514  34.942  14.355  1.00  0.00     0.079 A 
BRANCH  28  30
ATOM     30  O   UNL     1      23.662  33.200  16.032  1.00  0.00    -0.495 OA
ATOM     31  C   UNL     1      24.471  33.175  17.202  1.00  0.00     0.278 C 
ENDBRANCH  28  30
BRANCH  29  32
ATOM     32  N   UNL     1      24.664  34.400  13.682  1.00  0.00    -0.368 N 
ATOM     33  C   UNL     1      24.514  33.518  12.518  1.00  0.00     0.118 C 
ATOM     34  C   UNL     1      26.013  34.835  14.062  1.00  0.00     0.118 C 
ATOM     35  C   UNL     1      25.421  32.292  12.670  1.00  0.00     0.040 C 
ATOM     36  C   UNL     1      26.919  33.616  14.248  1.00  0.00     0.040 C 
ATOM     37  C   UNL     1      26.871  32.716  12.987  1.00  0.00     0.060 C 
BRANCH  37  38
ATOM     38  N   UNL     1      27.761  31.526  13.062  1.00  0.00    -0.298 NA
ATOM     39  C   UNL     1      29.013  31.691  13.845  1.00  0.00     0.100 C 
ATOM     40  C   UNL     1      27.952  30.885  11.740  1.00  0.00     0.100 C 
ATOM     41  C   UNL     1      30.258  31.697  12.948  1.00  0.00     0.099 C 
ATOM     42  C   UNL     1      29.078  29.841  11.788  1.00  0.00     0.099 C 
ATOM     43  N   UNL     1      30.381  30.430  12.190  1.00  0.00    -0.304 NA
ATOM     44  C   UNL     1      31.268  30.615  11.029  1.00  0.00     0.105 C 
ENDBRANCH  37  38
ENDBRANCH  29  32
ENDBRANCH   1  24
TORSDOF 9
ENDMDL
MODEL 5
REMARK VINA RESULT:    -8.913      3.937      8.546
REMARK INTER + INTRA:         -15.326
REMARK INTER:                 -13.249
REMARK INTRA:                  -2.077
REMARK UNBOUND:                -1.723
REMARK SMILES CCc1nc(C(N)=O)c(Nc2ccc(N3CCC(N4CCN(C)CC4)CC3)c(OC)c2)nc1NC1CCOCC1
REMARK SMILES IDX 10 1 9 3 3 4 33 5 4 6 32 7 5 8 2 9 1 10 34 11 35 13 36 14
REMARK SMILES IDX 40 15 37 16 39 17 38 18 6 19 7 20 8 21 11 24 12 25 31 26
REMARK SMILES IDX 13 27 28 28 14 29 29 30 30 31 15 32 16 33 27 34 17 35 26 36
REMARK SMILES IDX 18 37 19 38 20 39 25 40 21 41 24 42 22 43 23 44
REMARK H PARENT 10 2 34 12 7 22 7 23
REMARK Flexibility Score: inf
ROOT
ATOM      1  N   UNL     1      19.281  33.640  17.372  1.00  0.00    -0.338 N 
ATOM      2  H   UNL     1      19.189  32.782  17.959  1.00  0.00     0.168 HD
ENDROOT
BRANCH   1   3
ATOM      3  C   UNL     1      20.180  34.655  17.835  1.00  0.00     0.164 A 
ATOM      4  C   UNL     1      21.908  36.685  18.577  1.00  0.00     0.084 A 
ATOM      5  C   UNL     1      22.209  35.854  17.475  1.00  0.00     0.150 A 
ATOM      6  N   UNL     1      20.768  36.450  19.280  1.00  0.00    -0.240 NA
ATOM      7  N   UNL     1      21.331  34.869  17.147  1.00  0.00    -0.209 NA
ATOM      8  C   UNL     1      19.891  35.463  18.955  1.00  0.00     0.171 A 
BRANCH   4   9
ATOM      9  C   UNL     1      22.816  37.792  19.046  1.00  0.00     0.057 C 
ATOM     10  C   UNL     1      22.307  38.411  20.345  1.00  0.00     0.011 C 
ENDBRANCH   4   9
BRANCH   5  11
ATOM     11  N   UNL     1      23.403  36.028  16.689  1.00  0.00    -0.366 N 
ATOM     12  H   UNL     1      24.300  35.607  17.016  1.00  0.00     0.162 HD
BRANCH  11  13
ATOM     13  C   UNL     1      23.421  36.843  15.464  1.00  0.00     0.085 C 
ATOM     14  C   UNL     1      24.647  36.497  14.601  1.00  0.00     0.053 C 
ATOM     15  C   UNL     1      22.127  36.627  14.650  1.00  0.00     0.053 C 
ATOM     16  C   UNL     1      24.524  35.088  13.972  1.00  0.00     0.162 C 
ATOM     17  C   UNL     1      22.247  35.433  13.681  1.00  0.00     0.162 C 
ATOM     18  O   UNL     1      23.232  34.520  14.122  1.00  0.00    -0.381 OA
ENDBRANCH  11  13
ENDBRANCH   5  11
BRANCH   8  19
ATOM     19  C   UNL     1      18.693  35.269  19.805  1.00  0.00     0.271 C 
ATOM     20  N   UNL     1      18.791  35.363  21.228  1.00  0.00    -0.364 N 
ATOM     21  O   UNL     1      17.574  34.998  19.288  1.00  0.00    -0.268 OA
ATOM     22  H   UNL     1      19.697  35.587  21.697  1.00  0.00     0.160 HD
ATOM     23  H   UNL     1      17.942  35.226  21.821  1.00  0.00     0.160 HD
ENDBRANCH   8  19
ENDBRANCH   1   3
BRANCH   1  24
ATOM     24  C   UNL     1      18.724  33.626  16.042  1.00  0.00     0.043 A 
ATOM     25  C   UNL     1      17.565  34.368  15.777  1.00  0.00     0.028 A 
ATOM     26  C   UNL     1      19.303  32.866  15.008  1.00  0.00     0.074 A 
ATOM     27  C   UNL     1      16.994  34.361  14.504  1.00  0.00     0.032 A 
ATOM     28  C   UNL     1      18.731  32.850  13.720  1.00  0.00     0.144 A 
ATOM     29  C   UNL     1      17.570  33.608  13.470  1.00  0.00     0.079 A 
BRANCH  28  30
ATOM     30  O   UNL     1      19.274  32.080  12.678  1.00  0.00    -0.495 OA
ATOM     31  C   UNL     1      20.608  32.196  12.198  1.00  0.00     0.278 C 
ENDBRANCH  28  30
BRANCH  29  32
ATOM     32  N   UNL     1      16.953  33.604  12.170  1.00  0.00    -0.368 N 
ATOM     33  C   UNL     1      15.857  32.680  11.855  1.00  0.00     0.118 C 
ATOM     34  C   UNL     1      17.317  34.624  11.180  1.00  0.00     0.118 C 
ATOM     35  C   UNL     1      16.112  32.008  10.501  1.00  0.00     0.040 C 
ATOM     36  C   UNL     1      17.605  33.960   9.831  1.00  0.00     0.040 C 
ATOM     37  C   UNL     1      16.414  33.060   9.412  1.00  0.00     0.060 C 
BRANCH  37  38
ATOM     38  N   UNL     1      16.589  32.407   8.087  1.00  0.00    -0.298 NA
ATOM     39  C   UNL     1      15.342  32.007   7.383  1.00  0.00     0.100 C 
ATOM     40  C   UNL     1      17.634  31.359   8.111  1.00  0.00     0.100 C 
ATOM     41  C   UNL     1      15.173  30.483   7.331  1.00  0.00     0.099 C 
ATOM     42  C   UNL     1      17.607  30.518   6.827  1.00  0.00     0.099 C 
ATOM     43  N   UNL     1      16.302  29.839   6.620  1.00  0.00    -0.304 NA
ATOM     44  C   UNL     1      16.377  28.412   6.969  1.00  0.00     0.105 C 
ENDBRANCH  37  38
ENDBRANCH  29  32
ENDBRANCH   1  24
TORSDOF 9
ENDMDL
MODEL 6
REMARK VINA RESULT:    -8.896      1.686      4.472
REMARK INTER + INTRA:         -15.299
REMARK INTER:                 -13.460
REMARK INTRA:                  -1.840
REMARK UNBOUND:                -1.723
REMARK SMILES CCc1nc(C(N)=O)c(Nc2ccc(N3CCC(N4CCN(C)CC4)CC3)c(OC)c2)nc1NC1CCOCC1
REMARK SMILES IDX 10 1 9 3 3 4 33 5 4 6 32 7 5 8 2 9 1 10 34 11 35 13 36 14
REMARK SMILES IDX 40 15 37 16 39 17 38 18 6 19 7 20 8 21 11 24 12 25 31 26
REMARK SMILES IDX 13 27 28 28 14 29 29 30 30 31 15 32 16 33 27 34 17 35 26 36
REMARK SMILES IDX 18 37 19 38 20 39 25 40 21 41 24 42 22 43 23 44
REMARK H PARENT 10 2 34 12 7 22 7 23
REMARK Flexibility Score: inf
ROOT
ATOM      1  N   UNL     1      19.178  32.988  12.193  1.00  0.00    -0.338 N 
ATOM      2  H   UNL     1      18.866  32.317  11.457  1.00  0.00     0.168 HD
ENDROOT
BRANCH   1   3
ATOM      3  C   UNL     1      18.195  33.419  13.143  1.00  0.00     0.164 A 
ATOM      4  C   UNL     1      16.401  34.376  15.019  1.00  0.00     0.084 A 
ATOM      5  C   UNL     1      17.710  34.008  15.401  1.00  0.00     0.150 A 
ATOM      6  N   UNL     1      16.033  34.225  13.719  1.00  0.00    -0.240 NA
ATOM      7  N   UNL     1      18.558  33.543  14.445  1.00  0.00    -0.209 NA
ATOM      8  C   UNL     1      16.878  33.756  12.763  1.00  0.00     0.171 A 
BRANCH   4   9
ATOM      9  C   UNL     1      15.370  34.882  15.994  1.00  0.00     0.057 C 
ATOM     10  C   UNL     1      13.965  34.441  15.593  1.00  0.00     0.011 C 
ENDBRANCH   4   9
BRANCH   5  11
ATOM     11  N   UNL     1      18.172  34.124  16.760  1.00  0.00    -0.366 N 
ATOM     12  H   UNL     1      17.802  33.473  17.486  1.00  0.00     0.162 HD
BRANCH  11  13
ATOM     13  C   UNL     1      19.105  35.180  17.182  1.00  0.00     0.085 C 
ATOM     14  C   UNL     1      18.356  36.504  17.416  1.00  0.00     0.053 C 
ATOM     15  C   UNL     1      19.852  34.763  18.468  1.00  0.00     0.053 C 
ATOM     16  C   UNL     1      17.457  36.436  18.675  1.00  0.00     0.162 C 
ATOM     17  C   UNL     1      19.071  35.151  19.740  1.00  0.00     0.162 C 
ATOM     18  O   UNL     1      17.690  35.281  19.467  1.00  0.00    -0.381 OA
ENDBRANCH  11  13
ENDBRANCH   5  11
BRANCH   8  19
ATOM     19  C   UNL     1      16.370  33.599  11.380  1.00  0.00     0.271 C 
ATOM     20  N   UNL     1      16.125  34.747  10.563  1.00  0.00    -0.364 N 
ATOM     21  O   UNL     1      16.126  32.453  10.910  1.00  0.00    -0.268 OA
ATOM     22  H   UNL     1      16.315  35.713  10.912  1.00  0.00     0.160 HD
ATOM     23  H   UNL     1      15.768  34.627   9.588  1.00  0.00     0.160 HD
ENDBRANCH   8  19
ENDBRANCH   1   3
BRANCH   1  24
ATOM     24  C   UNL     1      20.592  33.214  12.363  1.00  0.00     0.043 A 
ATOM     25  C   UNL     1      21.444  32.117  12.540  1.00  0.00     0.028 A 
ATOM     26  C   UNL     1      21.134  34.513  12.380  1.00  0.00     0.074 A 
ATOM     27  C   UNL     1      22.815  32.305  12.723  1.00  0.00     0.032 A 
ATOM     28  C   UNL     1      22.517  34.713  12.568  1.00  0.00     0.144 A 
ATOM     29  C   UNL     1      23.360  33.597  12.736  1.00  0.00     0.079 A 
BRANCH  28  30
ATOM     30  O   UNL     1      23.080  36.000  12.613  1.00  0.00    -0.495 OA
ATOM     31  C   UNL     1      23.370  36.797  11.471  1.00  0.00     0.278 C 
ENDBRANCH  28  30
BRANCH  29  32
ATOM     32  N   UNL     1      24.774  33.766  12.943  1.00  0.00    -0.368 N 
ATOM     33  C   UNL     1      25.706  33.802  11.809  1.00  0.00     0.118 C 
ATOM     34  C   UNL     1      25.293  34.048  14.286  1.00  0.00     0.118 C 
ATOM     35  C   UNL     1      26.908  32.895  12.092  1.00  0.00     0.040 C 
ATOM     36  C   UNL     1      26.475  33.125  14.591  1.00  0.00     0.040 C 
ATOM     37  C   UNL     1      27.535  33.222  13.464  1.00  0.00     0.060 C 
BRANCH  37  38
ATOM     38  N   UNL     1      28.744  32.389  13.700  1.00  0.00    -0.298 NA
ATOM     39  C   UNL     1      30.051  33.095  13.632  1.00  0.00     0.100 C 
ATOM     40  C   UNL     1      28.703  31.114  12.948  1.00  0.00     0.100 C 
ATOM     41  C   UNL     1      30.864  32.684  12.397  1.00  0.00     0.099 C 
ATOM     42  C   UNL     1      30.064  30.404  12.985  1.00  0.00     0.099 C 
ATOM     43  N   UNL     1      31.152  31.231  12.400  1.00  0.00    -0.304 NA
ATOM     44  C   UNL     1      31.503  30.777  11.045  1.00  0.00     0.105 C 
ENDBRANCH  37  38
ENDBRANCH  29  32
ENDBRANCH   1  24
TORSDOF 9
ENDMDL
MODEL 7
REMARK VINA RESULT:    -8.822      1.710      4.095
REMARK INTER + INTRA:         -15.187
REMARK INTER:                 -13.219
REMARK INTRA:                  -1.968
REMARK UNBOUND:                -1.723
REMARK SMILES CCc1nc(C(N)=O)c(Nc2ccc(N3CCC(N4CCN(C)CC4)CC3)c(OC)c2)nc1NC1CCOCC1
REMARK SMILES IDX 10 1 9 3 3 4 33 5 4 6 32 7 5 8 2 9 1 10 34 11 35 13 36 14
REMARK SMILES IDX 40 15 37 16 39 17 38 18 6 19 7 20 8 21 11 24 12 25 31 26
REMARK SMILES IDX 13 27 28 28 14 29 29 30 30 31 15 32 16 33 27 34 17 35 26 36
REMARK SMILES IDX 18 37 19 38 20 39 25 40 21 41 24 42 22 43 23 44
REMARK H PARENT 10 2 34 12 7 22 7 23
REMARK Flexibility Score: inf
ROOT
ATOM      1  N   UNL     1      19.164  32.960  12.231  1.00  0.00    -0.338 N 
ATOM      2  H   UNL     1      18.849  32.259  11.524  1.00  0.00     0.168 HD
ENDROOT
BRANCH   1   3
ATOM      3  C   UNL     1      18.183  33.436  13.160  1.00  0.00     0.164 A 
ATOM      4  C   UNL     1      16.392  34.480  14.993  1.00  0.00     0.084 A 
ATOM      5  C   UNL     1      17.698  34.123  15.391  1.00  0.00     0.150 A 
ATOM      6  N   UNL     1      16.024  34.276  13.700  1.00  0.00    -0.240 NA
ATOM      7  N   UNL     1      18.545  33.613  14.456  1.00  0.00    -0.209 NA
ATOM      8  C   UNL     1      16.868  33.763  12.765  1.00  0.00     0.171 A 
BRANCH   4   9
ATOM      9  C   UNL     1      15.363  35.033  15.945  1.00  0.00     0.057 C 
ATOM     10  C   UNL     1      13.969  34.502  15.621  1.00  0.00     0.011 C 
ENDBRANCH   4   9
BRANCH   5  11
ATOM     11  N   UNL     1      18.160  34.293  16.745  1.00  0.00    -0.366 N 
ATOM     12  H   UNL     1      18.133  33.485  17.403  1.00  0.00     0.162 HD
BRANCH  11  13
ATOM     13  C   UNL     1      18.610  35.596  17.259  1.00  0.00     0.085 C 
ATOM     14  C   UNL     1      19.683  35.409  18.346  1.00  0.00     0.053 C 
ATOM     15  C   UNL     1      19.169  36.469  16.113  1.00  0.00     0.053 C 
ATOM     16  C   UNL     1      21.015  34.893  17.750  1.00  0.00     0.162 C 
ATOM     17  C   UNL     1      20.670  36.211  15.871  1.00  0.00     0.162 C 
ATOM     18  O   UNL     1      21.045  34.929  16.331  1.00  0.00    -0.381 OA
ENDBRANCH  11  13
ENDBRANCH   5  11
BRANCH   8  19
ATOM     19  C   UNL     1      16.359  33.550  11.389  1.00  0.00     0.271 C 
ATOM     20  N   UNL     1      16.109  34.664  10.529  1.00  0.00    -0.364 N 
ATOM     21  O   UNL     1      16.120  32.386  10.965  1.00  0.00    -0.268 OA
ATOM     22  H   UNL     1      16.294  35.644  10.840  1.00  0.00     0.160 HD
ATOM     23  H   UNL     1      15.752  34.505   9.560  1.00  0.00     0.160 HD
ENDBRANCH   8  19
ENDBRANCH   1   3
BRANCH   1  24
ATOM     24  C   UNL     1      20.578  33.187  12.392  1.00  0.00     0.043 A 
ATOM     25  C   UNL     1      21.432  32.089  12.566  1.00  0.00     0.028 A 
ATOM     26  C   UNL     1      21.121  34.486  12.402  1.00  0.00     0.074 A 
ATOM     27  C   UNL     1      22.804  32.278  12.740  1.00  0.00     0.032 A 
ATOM     28  C   UNL     1      22.505  34.686  12.581  1.00  0.00     0.144 A 
ATOM     29  C   UNL     1      23.349  33.570  12.747  1.00  0.00     0.079 A 
BRANCH  28  30
ATOM     30  O   UNL     1      23.068  35.973  12.620  1.00  0.00    -0.495 OA
ATOM     31  C   UNL     1      23.385  36.753  11.474  1.00  0.00     0.278 C 
ENDBRANCH  28  30
BRANCH  29  32
ATOM     32  N   UNL     1      24.764  33.740  12.945  1.00  0.00    -0.368 N 
ATOM     33  C   UNL     1      25.690  33.762  11.806  1.00  0.00     0.118 C 
ATOM     34  C   UNL     1      25.290  34.036  14.282  1.00  0.00     0.118 C 
ATOM     35  C   UNL     1      26.893  32.858  12.092  1.00  0.00     0.040 C 
ATOM     36  C   UNL     1      26.473  33.115  14.591  1.00  0.00     0.040 C 
ATOM     37  C   UNL     1      27.527  33.199  13.458  1.00  0.00     0.060 C 
BRANCH  37  38
ATOM     38  N   UNL     1      28.737  32.367  13.697  1.00  0.00    -0.298 NA
ATOM     39  C   UNL     1      30.044  33.070  13.615  1.00  0.00     0.100 C 
ATOM     40  C   UNL     1      28.691  31.084  12.957  1.00  0.00     0.100 C 
ATOM     41  C   UNL     1      30.851  32.646  12.381  1.00  0.00     0.099 C 
ATOM     42  C   UNL     1      30.051  30.374  12.995  1.00  0.00     0.099 C 
ATOM     43  N   UNL     1      31.137  31.193  12.398  1.00  0.00    -0.304 NA
ATOM     44  C   UNL     1      31.482  30.725  11.046  1.00  0.00     0.105 C 
ENDBRANCH  37  38
ENDBRANCH  29  32
ENDBRANCH   1  24
TORSDOF 9
ENDMDL
MODEL 8
REMARK VINA RESULT:    -8.736      2.024      4.854
REMARK INTER + INTRA:         -15.055
REMARK INTER:                 -13.290
REMARK INTRA:                  -1.765
REMARK UNBOUND:                -1.723
REMARK SMILES CCc1nc(C(N)=O)c(Nc2ccc(N3CCC(N4CCN(C)CC4)CC3)c(OC)c2)nc1NC1CCOCC1
REMARK SMILES IDX 10 1 9 3 3 4 33 5 4 6 32 7 5 8 2 9 1 10 34 11 35 13 36 14
REMARK SMILES IDX 40 15 37 16 39 17 38 18 6 19 7 20 8 21 11 24 12 25 31 26
REMARK SMILES IDX 13 27 28 28 14 29 29 30 30 31 15 32 16 33 27 34 17 35 26 36
REMARK SMILES IDX 18 37 19 38 20 39 25 40 21 41 24 42 22 43 23 44
REMARK H PARENT 10 2 34 12 7 22 7 23
REMARK Flexibility Score: inf
ROOT
ATOM      1  N   UNL     1      19.055  34.047  12.103  1.00  0.00    -0.338 N 
ATOM      2  H   UNL     1      18.674  34.098  11.132  1.00  0.00     0.168 HD
ENDROOT
BRANCH   1   3
ATOM      3  C   UNL     1      18.106  34.041  13.176  1.00  0.00     0.164 A 
ATOM      4  C   UNL     1      16.317  34.188  15.282  1.00  0.00     0.084 A 
ATOM      5  C   UNL     1      17.690  34.442  15.489  1.00  0.00     0.150 A 
ATOM      6  N   UNL     1      15.897  33.844  14.035  1.00  0.00    -0.240 NA
ATOM      7  N   UNL     1      18.533  34.358  14.425  1.00  0.00    -0.209 NA
ATOM      8  C   UNL     1      16.739  33.756  12.971  1.00  0.00     0.171 A 
BRANCH   4   9
ATOM      9  C   UNL     1      15.295  34.230  16.388  1.00  0.00     0.057 C 
ATOM     10  C   UNL     1      13.907  34.559  15.847  1.00  0.00     0.011 C 
ENDBRANCH   4   9
BRANCH   5  11
ATOM     11  N   UNL     1      18.217  34.797  16.782  1.00  0.00    -0.366 N 
ATOM     12  H   UNL     1      18.633  34.058  17.388  1.00  0.00     0.162 HD
BRANCH  11  13
ATOM     13  C   UNL     1      18.127  36.166  17.314  1.00  0.00     0.085 C 
ATOM     14  C   UNL     1      17.477  36.164  18.709  1.00  0.00     0.053 C 
ATOM     15  C   UNL     1      19.527  36.814  17.385  1.00  0.00     0.053 C 
ATOM     16  C   UNL     1      18.411  35.535  19.772  1.00  0.00     0.162 C 
ATOM     17  C   UNL     1      20.240  36.501  18.717  1.00  0.00     0.162 C 
ATOM     18  O   UNL     1      19.731  35.317  19.298  1.00  0.00    -0.381 OA
ENDBRANCH  11  13
ENDBRANCH   5  11
BRANCH   8  19
ATOM     19  C   UNL     1      16.186  33.342  11.660  1.00  0.00     0.271 C 
ATOM     20  N   UNL     1      15.723  32.005  11.459  1.00  0.00    -0.364 N 
ATOM     21  O   UNL     1      16.136  34.156  10.697  1.00  0.00    -0.268 OA
ATOM     22  H   UNL     1      15.745  31.300  12.229  1.00  0.00     0.160 HD
ATOM     23  H   UNL     1      15.334  31.721  10.532  1.00  0.00     0.160 HD
ENDBRANCH   8  19
ENDBRANCH   1   3
BRANCH   1  24
ATOM     24  C   UNL     1      20.447  33.719  12.278  1.00  0.00     0.043 A 
ATOM     25  C   UNL     1      20.828  32.373  12.370  1.00  0.00     0.028 A 
ATOM     26  C   UNL     1      21.433  34.719  12.385  1.00  0.00     0.074 A 
ATOM     27  C   UNL     1      22.167  32.026  12.555  1.00  0.00     0.032 A 
ATOM     28  C   UNL     1      22.787  34.377  12.576  1.00  0.00     0.144 A 
ATOM     29  C   UNL     1      23.152  33.019  12.658  1.00  0.00     0.079 A 
BRANCH  28  30
ATOM     30  O   UNL     1      23.786  35.356  12.711  1.00  0.00    -0.495 OA
ATOM     31  C   UNL     1      24.360  36.080  11.629  1.00  0.00     0.278 C 
ENDBRANCH  28  30
BRANCH  29  32
ATOM     32  N   UNL     1      24.523  32.636  12.866  1.00  0.00    -0.368 N 
ATOM     33  C   UNL     1      25.161  32.789  14.179  1.00  0.00     0.118 C 
ATOM     34  C   UNL     1      25.266  31.952  11.801  1.00  0.00     0.118 C 
ATOM     35  C   UNL     1      26.539  33.441  14.018  1.00  0.00     0.040 C 
ATOM     36  C   UNL     1      26.632  32.617  11.610  1.00  0.00     0.040 C 
ATOM     37  C   UNL     1      27.383  32.694  12.964  1.00  0.00     0.060 C 
BRANCH  37  38
ATOM     38  N   UNL     1      28.743  33.287  12.865  1.00  0.00    -0.298 NA
ATOM     39  C   UNL     1      29.883  32.342  13.002  1.00  0.00     0.100 C 
ATOM     40  C   UNL     1      28.878  34.520  13.675  1.00  0.00     0.100 C 
ATOM     41  C   UNL     1      30.649  32.548  14.315  1.00  0.00     0.099 C 
ATOM     42  C   UNL     1      30.347  34.957  13.780  1.00  0.00     0.099 C 
ATOM     43  N   UNL     1      31.204  33.918  14.406  1.00  0.00    -0.304 NA
ATOM     44  C   UNL     1      31.516  34.250  15.806  1.00  0.00     0.105 C 
ENDBRANCH  37  38
ENDBRANCH  29  32
ENDBRANCH   1  24
TORSDOF 9
ENDMDL
MODEL 9
REMARK VINA RESULT:    -8.707      1.262      1.717
REMARK INTER + INTRA:         -15.012
REMARK INTER:                 -13.429
REMARK INTRA:                  -1.583
REMARK UNBOUND:                -1.723
REMARK SMILES CCc1nc(C(N)=O)c(Nc2ccc(N3CCC(N4CCN(C)CC4)CC3)c(OC)c2)nc1NC1CCOCC1
REMARK SMILES IDX 10 1 9 3 3 4 33 5 4 6 32 7 5 8 2 9 1 10 34 11 35 13 36 14
REMARK SMILES IDX 40 15 37 16 39 17 38 18 6 19 7 20 8 21 11 24 12 25 31 26
REMARK SMILES IDX 13 27 28 28 14 29 29 30 30 31 15 32 16 33 27 34 17 35 26 36
REMARK SMILES IDX 18 37 19 38 20 39 25 40 21 41 24 42 22 43 23 44
REMARK H PARENT 10 2 34 12 7 22 7 23
REMARK Flexibility Score: inf
ROOT
ATOM      1  N   UNL     1      20.090  33.678  16.605  1.00  0.00    -0.338 N 
ATOM      2  H   UNL     1      20.093  33.592  17.646  1.00  0.00     0.168 HD
ENDROOT
BRANCH   1   3
ATOM      3  C   UNL     1      18.820  33.868  15.970  1.00  0.00     0.164 A 
ATOM      4  C   UNL     1      16.365  34.071  14.709  1.00  0.00     0.084 A 
ATOM      5  C   UNL     1      17.484  33.552  14.021  1.00  0.00     0.150 A 
ATOM      6  N   UNL     1      16.525  34.493  15.991  1.00  0.00    -0.240 NA
ATOM      7  N   UNL     1      18.671  33.471  14.681  1.00  0.00    -0.209 NA
ATOM      8  C   UNL     1      17.712  34.416  16.651  1.00  0.00     0.171 A 
BRANCH   4   9
ATOM      9  C   UNL     1      15.008  34.229  14.074  1.00  0.00     0.057 C 
ATOM     10  C   UNL     1      13.904  34.248  15.127  1.00  0.00     0.011 C 
ENDBRANCH   4   9
BRANCH   5  11
ATOM     11  N   UNL     1      17.401  33.098  12.656  1.00  0.00    -0.366 N 
ATOM     12  H   UNL     1      16.882  32.221  12.437  1.00  0.00     0.162 HD
BRANCH  11  13
ATOM     13  C   UNL     1      18.084  33.798  11.557  1.00  0.00     0.085 C 
ATOM     14  C   UNL     1      18.961  32.821  10.755  1.00  0.00     0.053 C 
ATOM     15  C   UNL     1      17.057  34.474  10.622  1.00  0.00     0.053 C 
ATOM     16  C   UNL     1      18.103  31.827   9.934  1.00  0.00     0.162 C 
ATOM     17  C   UNL     1      16.569  33.518   9.514  1.00  0.00     0.162 C 
ATOM     18  O   UNL     1      16.725  32.169   9.904  1.00  0.00    -0.381 OA
ENDBRANCH  11  13
ENDBRANCH   5  11
BRANCH   8  19
ATOM     19  C   UNL     1      17.789  34.933  18.038  1.00  0.00     0.271 C 
ATOM     20  N   UNL     1      17.213  36.199  18.372  1.00  0.00    -0.364 N 
ATOM     21  O   UNL     1      18.381  34.276  18.937  1.00  0.00    -0.268 OA
ATOM     22  H   UNL     1      16.713  36.774  17.659  1.00  0.00     0.160 HD
ATOM     23  H   UNL     1      17.271  36.556  19.352  1.00  0.00     0.160 HD
ENDBRANCH   8  19
ENDBRANCH   1   3
BRANCH   1  24
ATOM     24  C   UNL     1      21.348  33.869  15.928  1.00  0.00     0.043 A 
ATOM     25  C   UNL     1      22.470  33.143  16.350  1.00  0.00     0.028 A 
ATOM     26  C   UNL     1      21.483  34.784  14.867  1.00  0.00     0.074 A 
ATOM     27  C   UNL     1      23.704  33.318  15.724  1.00  0.00     0.032 A 
ATOM     28  C   UNL     1      22.728  34.970  14.231  1.00  0.00     0.144 A 
ATOM     29  C   UNL     1      23.842  34.226  14.664  1.00  0.00     0.079 A 
BRANCH  28  30
ATOM     30  O   UNL     1      22.895  35.896  13.187  1.00  0.00    -0.495 OA
ATOM     31  C   UNL     1      23.062  37.296  13.367  1.00  0.00     0.278 C 
ENDBRANCH  28  30
BRANCH  29  32
ATOM     32  N   UNL     1      25.130  34.401  14.045  1.00  0.00    -0.368 N 
ATOM     33  C   UNL     1      25.429  33.804  12.738  1.00  0.00     0.118 C 
ATOM     34  C   UNL     1      26.121  35.299  14.649  1.00  0.00     0.118 C 
ATOM     35  C   UNL     1      26.792  33.105  12.781  1.00  0.00     0.040 C 
ATOM     36  C   UNL     1      27.480  34.598  14.727  1.00  0.00     0.040 C 
ATOM     37  C   UNL     1      27.880  34.051  13.332  1.00  0.00     0.060 C 
BRANCH  37  38
ATOM     38  N   UNL     1      29.212  33.390  13.304  1.00  0.00    -0.298 NA
ATOM     39  C   UNL     1      29.266  32.048  12.667  1.00  0.00     0.100 C 
ATOM     40  C   UNL     1      29.906  33.470  14.610  1.00  0.00     0.100 C 
ATOM     41  C   UNL     1      29.511  30.933  13.692  1.00  0.00     0.099 C 
ATOM     42  C   UNL     1      31.139  32.555  14.640  1.00  0.00     0.099 C 
ATOM     43  N   UNL     1      30.794  31.129  14.406  1.00  0.00    -0.304 NA
ATOM     44  C   UNL     1      30.802  30.361  15.661  1.00  0.00     0.105 C 
ENDBRANCH  37  38
ENDBRANCH  29  32
ENDBRANCH   1  24
TORSDOF 9
ENDMDL
MODEL 10
REMARK VINA RESULT:    -8.562      3.335      8.797
REMARK INTER + INTRA:         -14.790
REMARK INTER:                 -13.016
REMARK INTRA:                  -1.774
REMARK UNBOUND:                -1.723
REMARK SMILES CCc1nc(C(N)=O)c(Nc2ccc(N3CCC(N4CCN(C)CC4)CC3)c(OC)c2)nc1NC1CCOCC1
REMARK SMILES IDX 10 1 9 3 3 4 33 5 4 6 32 7 5 8 2 9 1 10 34 11 35 13 36 14
REMARK SMILES IDX 40 15 37 16 39 17 38 18 6 19 7 20 8 21 11 24 12 25 31 26
REMARK SMILES IDX 13 27 28 28 14 29 29 30 30 31 15 32 16 33 27 34 17 35 26 36
REMARK SMILES IDX 18 37 19 38 20 39 25 40 21 41 24 42 22 43 23 44
REMARK H PARENT 10 2 34 12 7 22 7 23
REMARK Flexibility Score: inf
ROOT
ATOM      1  N   UNL     1      20.311  36.348  16.613  1.00  0.00    -0.338 N 
ATOM      2  H   UNL     1      19.944  37.255  16.977  1.00  0.00     0.168 HD
ENDROOT
BRANCH   1   3
ATOM      3  C   UNL     1      21.324  35.695  17.388  1.00  0.00     0.164 A 
ATOM      4  C   UNL     1      23.377  34.568  18.861  1.00  0.00     0.084 A 
ATOM      5  C   UNL     1      23.592  34.974  17.526  1.00  0.00     0.150 A 
ATOM      6  N   UNL     1      22.136  34.717  19.398  1.00  0.00    -0.240 NA
ATOM      7  N   UNL     1      22.553  35.523  16.840  1.00  0.00    -0.209 NA
ATOM      8  C   UNL     1      21.097  35.262  18.712  1.00  0.00     0.171 A 
BRANCH   4   9
ATOM      9  C   UNL     1      24.445  33.929  19.710  1.00  0.00     0.057 C 
ATOM     10  C   UNL     1      24.153  32.450  19.945  1.00  0.00     0.011 C 
ENDBRANCH   4   9
BRANCH   5  11
ATOM     11  N   UNL     1      24.872  34.836  16.881  1.00  0.00    -0.366 N 
ATOM     12  H   UNL     1      25.490  35.670  16.781  1.00  0.00     0.162 HD
BRANCH  11  13
ATOM     13  C   UNL     1      25.316  33.564  16.290  1.00  0.00     0.085 C 
ATOM     14  C   UNL     1      24.366  33.130  15.160  1.00  0.00     0.053 C 
ATOM     15  C   UNL     1      26.756  33.691  15.746  1.00  0.00     0.053 C 
ATOM     16  C   UNL     1      24.495  34.049  13.921  1.00  0.00     0.162 C 
ATOM     17  C   UNL     1      26.781  34.205  14.293  1.00  0.00     0.162 C 
ATOM     18  O   UNL     1      25.606  34.930  13.991  1.00  0.00    -0.381 OA
ENDBRANCH  11  13
ENDBRANCH   5  11
BRANCH   8  19
ATOM     19  C   UNL     1      19.775  35.351  19.377  1.00  0.00     0.271 C 
ATOM     20  N   UNL     1      19.593  36.194  20.517  1.00  0.00    -0.364 N 
ATOM     21  O   UNL     1      18.798  34.670  18.960  1.00  0.00    -0.268 OA
ATOM     22  H   UNL     1      20.375  36.776  20.894  1.00  0.00     0.160 HD
ATOM     23  H   UNL     1      18.658  36.252  20.980  1.00  0.00     0.160 HD
ENDBRANCH   8  19
ENDBRANCH   1   3
BRANCH   1  24
ATOM     24  C   UNL     1      19.602  35.703  15.536  1.00  0.00     0.043 A 
ATOM     25  C   UNL     1      18.201  35.690  15.549  1.00  0.00     0.028 A 
ATOM     26  C   UNL     1      20.283  35.063  14.483  1.00  0.00     0.074 A 
ATOM     27  C   UNL     1      17.487  35.060  14.529  1.00  0.00     0.032 A 
ATOM     28  C   UNL     1      19.571  34.420  13.451  1.00  0.00     0.144 A 
ATOM     29  C   UNL     1      18.162  34.425  13.477  1.00  0.00     0.079 A 
BRANCH  28  30
ATOM     30  O   UNL     1      20.227  33.753  12.402  1.00  0.00    -0.495 OA
ATOM     31  C   UNL     1      21.234  32.764  12.578  1.00  0.00     0.278 C 
ENDBRANCH  28  30
BRANCH  29  32
ATOM     32  N   UNL     1      17.404  33.767  12.445  1.00  0.00    -0.368 N 
ATOM     33  C   UNL     1      17.487  32.314  12.255  1.00  0.00     0.118 C 
ATOM     34  C   UNL     1      16.426  34.524  11.655  1.00  0.00     0.118 C 
ATOM     35  C   UNL     1      17.672  31.991  10.768  1.00  0.00     0.040 C 
ATOM     36  C   UNL     1      16.624  34.232  10.165  1.00  0.00     0.040 C 
ATOM     37  C   UNL     1      16.603  32.703   9.911  1.00  0.00     0.060 C 
BRANCH  37  38
ATOM     38  N   UNL     1      16.744  32.328   8.479  1.00  0.00    -0.298 NA
ATOM     39  C   UNL     1      15.491  31.949   7.774  1.00  0.00     0.100 C 
ATOM     40  C   UNL     1      17.874  31.398   8.251  1.00  0.00     0.100 C 
ATOM     41  C   UNL     1      15.448  30.451   7.440  1.00  0.00     0.099 C 
ATOM     42  C   UNL     1      17.832  30.812   6.832  1.00  0.00     0.099 C 
ATOM     43  N   UNL     1      16.577  30.062   6.564  1.00  0.00    -0.304 NA
ATOM     44  C   UNL     1      16.796  28.608   6.630  1.00  0.00     0.105 C 
ENDBRANCH  37  38
ENDBRANCH  29  32
ENDBRANCH   1  24
TORSDOF 9
ENDMDL
MODEL 11
REMARK VINA RESULT:    -8.486      1.924      4.857
REMARK INTER + INTRA:         -14.674
REMARK INTER:                 -12.968
REMARK INTRA:                  -1.706
REMARK UNBOUND:                -1.723
REMARK SMILES CCc1nc(C(N)=O)c(Nc2ccc(N3CCC(N4CCN(C)CC4)CC3)c(OC)c2)nc1NC1CCOCC1
REMARK SMILES IDX 10 1 9 3 3 4 33 5 4 6 32 7 5 8 2 9 1 10 34 11 35 13 36 14
REMARK SMILES IDX 40 15 37 16 39 17 38 18 6 19 7 20 8 21 11 24 12 25 31 26
REMARK SMILES IDX 13 27 28 28 14 29 29 30 30 31 15 32 16 33 27 34 17 35 26 36
REMARK SMILES IDX 18 37 19 38 20 39 25 40 21 41 24 42 22 43 23 44
REMARK H PARENT 10 2 34 12 7 22 7 23
REMARK Flexibility Score: inf
ROOT
ATOM      1  N   UNL     1      19.740  33.768  12.508  1.00  0.00    -0.338 N 
ATOM      2  H   UNL     1      19.616  33.306  11.580  1.00  0.00     0.168 HD
ENDROOT
BRANCH   1   3
ATOM      3  C   UNL     1      18.569  33.935  13.316  1.00  0.00     0.164 A 
ATOM      4  C   UNL     1      16.363  34.410  14.919  1.00  0.00     0.084 A 
ATOM      5  C   UNL     1      17.667  34.470  15.457  1.00  0.00     0.150 A 
ATOM      6  N   UNL     1      16.213  34.089  13.606  1.00  0.00    -0.240 NA
ATOM      7  N   UNL     1      18.722  34.230  14.632  1.00  0.00    -0.209 NA
ATOM      8  C   UNL     1      17.266  33.844  12.781  1.00  0.00     0.171 A 
BRANCH   4   9
ATOM      9  C   UNL     1      15.121  34.636  15.740  1.00  0.00     0.057 C 
ATOM     10  C   UNL     1      13.869  34.211  14.979  1.00  0.00     0.011 C 
ENDBRANCH   4   9
BRANCH   5  11
ATOM     11  N   UNL     1      17.910  34.789  16.841  1.00  0.00    -0.366 N 
ATOM     12  H   UNL     1      18.015  34.019  17.535  1.00  0.00     0.162 HD
BRANCH  11  13
ATOM     13  C   UNL     1      17.949  36.177  17.328  1.00  0.00     0.085 C 
ATOM     14  C   UNL     1      17.344  36.273  18.739  1.00  0.00     0.053 C 
ATOM     15  C   UNL     1      19.400  36.708  17.340  1.00  0.00     0.053 C 
ATOM     16  C   UNL     1      18.254  35.603  19.797  1.00  0.00     0.162 C 
ATOM     17  C   UNL     1      20.123  36.380  18.661  1.00  0.00     0.162 C 
ATOM     18  O   UNL     1      19.537  35.261  19.295  1.00  0.00    -0.381 OA
ENDBRANCH  11  13
ENDBRANCH   5  11
BRANCH   8  19
ATOM     19  C   UNL     1      16.993  33.470  11.373  1.00  0.00     0.271 C 
ATOM     20  N   UNL     1      16.224  32.304  11.069  1.00  0.00    -0.364 N 
ATOM     21  O   UNL     1      17.453  34.161  10.423  1.00  0.00    -0.268 OA
ATOM     22  H   UNL     1      15.823  31.705  11.825  1.00  0.00     0.160 HD
ATOM     23  H   UNL     1      16.035  32.047  10.074  1.00  0.00     0.160 HD
ENDBRANCH   8  19
ENDBRANCH   1   3
BRANCH   1  24
ATOM     24  C   UNL     1      21.078  33.952  13.011  1.00  0.00     0.043 A 
ATOM     25  C   UNL     1      21.480  35.223  13.443  1.00  0.00     0.028 A 
ATOM     26  C   UNL     1      22.001  32.889  13.057  1.00  0.00     0.074 A 
ATOM     27  C   UNL     1      22.774  35.434  13.920  1.00  0.00     0.032 A 
ATOM     28  C   UNL     1      23.312  33.095  13.534  1.00  0.00     0.144 A 
ATOM     29  C   UNL     1      23.695  34.378  13.971  1.00  0.00     0.079 A 
BRANCH  28  30
ATOM     30  O   UNL     1      24.259  32.057  13.566  1.00  0.00    -0.495 OA
ATOM     31  C   UNL     1      25.033  31.634  12.451  1.00  0.00     0.278 C 
ENDBRANCH  28  30
BRANCH  29  32
ATOM     32  N   UNL     1      25.029  34.625  14.451  1.00  0.00    -0.368 N 
ATOM     33  C   UNL     1      26.057  35.194  13.572  1.00  0.00     0.118 C 
ATOM     34  C   UNL     1      25.345  34.441  15.872  1.00  0.00     0.118 C 
ATOM     35  C   UNL     1      27.359  34.398  13.706  1.00  0.00     0.040 C 
ATOM     36  C   UNL     1      26.628  33.620  16.018  1.00  0.00     0.040 C 
ATOM     37  C   UNL     1      27.770  34.258  15.188  1.00  0.00     0.060 C 
BRANCH  37  38
ATOM     38  N   UNL     1      29.071  33.548  15.307  1.00  0.00    -0.298 NA
ATOM     39  C   UNL     1      30.256  34.252  14.750  1.00  0.00     0.100 C 
ATOM     40  C   UNL     1      28.971  32.124  14.913  1.00  0.00     0.100 C 
ATOM     41  C   UNL     1      30.793  33.567  13.486  1.00  0.00     0.099 C 
ATOM     42  C   UNL     1      30.362  31.487  14.778  1.00  0.00     0.099 C 
ATOM     43  N   UNL     1      31.204  32.171  13.762  1.00  0.00    -0.304 NA
ATOM     44  C   UNL     1      31.269  31.401  12.510  1.00  0.00     0.105 C 
ENDBRANCH  37  38
ENDBRANCH  29  32
ENDBRANCH   1  24
TORSDOF 9
ENDMDL
MODEL 12
REMARK VINA RESULT:    -8.447      2.450      3.403
REMARK INTER + INTRA:         -14.614
REMARK INTER:                 -13.892
REMARK INTRA:                  -0.723
REMARK UNBOUND:                -1.723
REMARK SMILES CCc1nc(C(N)=O)c(Nc2ccc(N3CCC(N4CCN(C)CC4)CC3)c(OC)c2)nc1NC1CCOCC1
REMARK SMILES IDX 10 1 9 3 3 4 33 5 4 6 32 7 5 8 2 9 1 10 34 11 35 13 36 14
REMARK SMILES IDX 40 15 37 16 39 17 38 18 6 19 7 20 8 21 11 24 12 25 31 26
REMARK SMILES IDX 13 27 28 28 14 29 29 30 30 31 15 32 16 33 27 34 17 35 26 36
REMARK SMILES IDX 18 37 19 38 20 39 25 40 21 41 24 42 22 43 23 44
REMARK H PARENT 10 2 34 12 7 22 7 23
REMARK Flexibility Score: inf
ROOT
ATOM      1  N   UNL     1      20.519  32.436  13.798  1.00  0.00    -0.338 N 
ATOM      2  H   UNL     1      20.269  32.061  14.740  1.00  0.00     0.168 HD
ENDROOT
BRANCH   1   3
ATOM      3  C   UNL     1      19.440  32.877  12.964  1.00  0.00     0.164 A 
ATOM      4  C   UNL     1      17.291  33.575  11.366  1.00  0.00     0.084 A 
ATOM      5  C   UNL     1      18.131  32.498  11.008  1.00  0.00     0.150 A 
ATOM      6  N   UNL     1      17.575  34.277  12.495  1.00  0.00    -0.240 NA
ATOM      7  N   UNL     1      19.176  32.191  11.823  1.00  0.00    -0.209 NA
ATOM      8  C   UNL     1      18.621  33.973  13.310  1.00  0.00     0.171 A 
BRANCH   4   9
ATOM      9  C   UNL     1      16.120  34.020  10.530  1.00  0.00     0.057 C 
ATOM     10  C   UNL     1      16.230  35.497  10.164  1.00  0.00     0.011 C 
ENDBRANCH   4   9
BRANCH   5  11
ATOM     11  N   UNL     1      17.907  31.715   9.820  1.00  0.00    -0.366 N 
ATOM     12  H   UNL     1      18.166  30.704   9.814  1.00  0.00     0.162 HD
BRANCH  11  13
ATOM     13  C   UNL     1      17.385  32.308   8.579  1.00  0.00     0.085 C 
ATOM     14  C   UNL     1      18.281  31.941   7.384  1.00  0.00     0.053 C 
ATOM     15  C   UNL     1      15.938  31.835   8.318  1.00  0.00     0.053 C 
ATOM     16  C   UNL     1      18.163  30.441   7.021  1.00  0.00     0.162 C 
ATOM     17  C   UNL     1      15.898  30.511   7.527  1.00  0.00     0.162 C 
ATOM     18  O   UNL     1      17.099  29.785   7.695  1.00  0.00    -0.381 OA
ENDBRANCH  11  13
ENDBRANCH   5  11
BRANCH   8  19
ATOM     19  C   UNL     1      18.864  34.821  14.501  1.00  0.00     0.271 C 
ATOM     20  N   UNL     1      17.861  34.954  15.512  1.00  0.00    -0.364 N 
ATOM     21  O   UNL     1      19.948  35.453  14.631  1.00  0.00    -0.268 OA
ATOM     22  H   UNL     1      16.950  34.448  15.444  1.00  0.00     0.160 HD
ATOM     23  H   UNL     1      18.040  35.553  16.349  1.00  0.00     0.160 HD
ENDBRANCH   8  19
ENDBRANCH   1   3
BRANCH   1  24
ATOM     24  C   UNL     1      21.902  32.729  13.519  1.00  0.00     0.043 A 
ATOM     25  C   UNL     1      22.900  32.120  14.291  1.00  0.00     0.028 A 
ATOM     26  C   UNL     1      22.275  33.631  12.505  1.00  0.00     0.074 A 
ATOM     27  C   UNL     1      24.247  32.397  14.055  1.00  0.00     0.032 A 
ATOM     28  C   UNL     1      23.634  33.919  12.262  1.00  0.00     0.144 A 
ATOM     29  C   UNL     1      24.623  33.292  13.044  1.00  0.00     0.079 A 
BRANCH  28  30
ATOM     30  O   UNL     1      24.031  34.835  11.273  1.00  0.00    -0.495 OA
ATOM     31  C   UNL     1      23.955  36.250  11.403  1.00  0.00     0.278 C 
ENDBRANCH  28  30
BRANCH  29  32
ATOM     32  N   UNL     1      26.019  33.573  12.830  1.00  0.00    -0.368 N 
ATOM     33  C   UNL     1      26.763  32.930  11.741  1.00  0.00     0.118 C 
ATOM     34  C   UNL     1      26.687  34.618  13.615  1.00  0.00     0.118 C 
ATOM     35  C   UNL     1      28.101  32.398  12.264  1.00  0.00     0.040 C 
ATOM     36  C   UNL     1      28.010  34.086  14.169  1.00  0.00     0.040 C 
ATOM     37  C   UNL     1      28.873  33.498  13.023  1.00  0.00     0.060 C 
BRANCH  37  38
ATOM     38  N   UNL     1      30.202  32.996  13.466  1.00  0.00    -0.298 NA
ATOM     39  C   UNL     1      30.928  32.126  12.504  1.00  0.00     0.100 C 
ATOM     40  C   UNL     1      30.171  32.475  14.852  1.00  0.00     0.100 C 
ATOM     41  C   UNL     1      30.997  30.670  12.983  1.00  0.00     0.099 C 
ATOM     42  C   UNL     1      31.464  31.718  15.188  1.00  0.00     0.099 C 
ATOM     43  N   UNL     1      31.697  30.562  14.284  1.00  0.00    -0.304 NA
ATOM     44  C   UNL     1      31.360  29.289  14.941  1.00  0.00     0.105 C 
ENDBRANCH  37  38
ENDBRANCH  29  32
ENDBRANCH   1  24
TORSDOF 9
ENDMDL
MODEL 13
REMARK VINA RESULT:    -8.319      3.065     11.483
REMARK INTER + INTRA:         -14.419
REMARK INTER:                 -12.434
REMARK INTRA:                  -1.985
REMARK UNBOUND:                -1.723
REMARK SMILES CCc1nc(C(N)=O)c(Nc2ccc(N3CCC(N4CCN(C)CC4)CC3)c(OC)c2)nc1NC1CCOCC1
REMARK SMILES IDX 10 1 9 3 3 4 33 5 4 6 32 7 5 8 2 9 1 10 34 11 35 13 36 14
REMARK SMILES IDX 40 15 37 16 39 17 38 18 6 19 7 20 8 21 11 24 12 25 31 26
REMARK SMILES IDX 13 27 28 28 14 29 29 30 30 31 15 32 16 33 27 34 17 35 26 36
REMARK SMILES IDX 18 37 19 38 20 39 25 40 21 41 24 42 22 43 23 44
REMARK H PARENT 10 2 34 12 7 22 7 23
REMARK Flexibility Score: inf
ROOT
ATOM      1  N   UNL     1      26.784  33.573  12.237  1.00  0.00    -0.338 N 
ATOM      2  H   UNL     1      27.209  34.077  11.427  1.00  0.00     0.168 HD
ENDROOT
BRANCH   1   3
ATOM      3  C   UNL     1      27.682  32.924  13.146  1.00  0.00     0.164 A 
ATOM      4  C   UNL     1      29.298  31.687  15.020  1.00  0.00     0.084 A 
ATOM      5  C   UNL     1      28.806  32.991  15.247  1.00  0.00     0.150 A 
ATOM      6  N   UNL     1      28.985  31.065  13.853  1.00  0.00    -0.240 NA
ATOM      7  N   UNL     1      28.015  33.560  14.298  1.00  0.00    -0.209 NA
ATOM      8  C   UNL     1      28.198  31.633  12.902  1.00  0.00     0.171 A 
BRANCH   4   9
ATOM      9  C   UNL     1      30.200  30.967  15.989  1.00  0.00     0.057 C 
ATOM     10  C   UNL     1      31.102  29.969  15.268  1.00  0.00     0.011 C 
ENDBRANCH   4   9
BRANCH   5  11
ATOM     11  N   UNL     1      29.105  33.723  16.451  1.00  0.00    -0.366 N 
ATOM     12  H   UNL     1      30.099  33.883  16.722  1.00  0.00     0.162 HD
BRANCH  11  13
ATOM     13  C   UNL     1      28.049  34.202  17.357  1.00  0.00     0.085 C 
ATOM     14  C   UNL     1      27.068  33.065  17.694  1.00  0.00     0.053 C 
ATOM     15  C   UNL     1      28.664  34.769  18.655  1.00  0.00     0.053 C 
ATOM     16  C   UNL     1      27.724  31.997  18.603  1.00  0.00     0.162 C 
ATOM     17  C   UNL     1      28.877  33.674  19.720  1.00  0.00     0.162 C 
ATOM     18  O   UNL     1      28.983  32.398  19.120  1.00  0.00    -0.381 OA
ENDBRANCH  11  13
ENDBRANCH   5  11
BRANCH   8  19
ATOM     19  C   UNL     1      27.941  30.883  11.649  1.00  0.00     0.271 C 
ATOM     20  N   UNL     1      28.584  29.628  11.412  1.00  0.00    -0.364 N 
ATOM     21  O   UNL     1      27.171  31.350  10.766  1.00  0.00    -0.268 OA
ATOM     22  H   UNL     1      29.228  29.205  12.117  1.00  0.00     0.160 HD
ATOM     23  H   UNL     1      28.397  29.105  10.527  1.00  0.00     0.160 HD
ENDBRANCH   8  19
ENDBRANCH   1   3
BRANCH   1  24
ATOM     24  C   UNL     1      25.389  33.791  12.526  1.00  0.00     0.043 A 
ATOM     25  C   UNL     1      24.699  34.804  11.849  1.00  0.00     0.028 A 
ATOM     26  C   UNL     1      24.708  33.025  13.492  1.00  0.00     0.074 A 
ATOM     27  C   UNL     1      23.352  35.049  12.119  1.00  0.00     0.032 A 
ATOM     28  C   UNL     1      23.348  33.267  13.774  1.00  0.00     0.144 A 
ATOM     29  C   UNL     1      22.669  34.285  13.077  1.00  0.00     0.079 A 
BRANCH  28  30
ATOM     30  O   UNL     1      22.652  32.534  14.750  1.00  0.00    -0.495 OA
ATOM     31  C   UNL     1      22.748  32.759  16.151  1.00  0.00     0.278 C 
ENDBRANCH  28  30
BRANCH  29  32
ATOM     32  N   UNL     1      21.284  34.567  13.350  1.00  0.00    -0.368 N 
ATOM     33  C   UNL     1      20.897  35.496  14.418  1.00  0.00     0.118 C 
ATOM     34  C   UNL     1      20.237  34.037  12.469  1.00  0.00     0.118 C 
ATOM     35  C   UNL     1      19.779  34.881  15.267  1.00  0.00     0.040 C 
ATOM     36  C   UNL     1      19.131  33.391  13.306  1.00  0.00     0.040 C 
ATOM     37  C   UNL     1      18.618  34.388  14.377  1.00  0.00     0.060 C 
BRANCH  37  38
ATOM     38  N   UNL     1      17.506  33.858  15.211  1.00  0.00    -0.298 NA
ATOM     39  C   UNL     1      16.139  33.991  14.642  1.00  0.00     0.100 C 
ATOM     40  C   UNL     1      17.617  34.279  16.627  1.00  0.00     0.100 C 
ATOM     41  C   UNL     1      15.293  35.018  15.406  1.00  0.00     0.099 C 
ATOM     42  C   UNL     1      16.331  33.959  17.402  1.00  0.00     0.099 C 
ATOM     43  N   UNL     1      15.139  34.637  16.829  1.00  0.00    -0.304 NA
ATOM     44  C   UNL     1      14.749  35.808  17.631  1.00  0.00     0.105 C 
ENDBRANCH  37  38
ENDBRANCH  29  32
ENDBRANCH   1  24
TORSDOF 9
ENDMDL
MODEL 14
REMARK VINA RESULT:    -8.273      3.017     11.371
REMARK INTER + INTRA:         -14.350
REMARK INTER:                 -12.520
REMARK INTRA:                  -1.830
REMARK UNBOUND:                -1.723
REMARK SMILES CCc1nc(C(N)=O)c(Nc2ccc(N3CCC(N4CCN(C)CC4)CC3)c(OC)c2)nc1NC1CCOCC1
REMARK SMILES IDX 10 1 9 3 3 4 33 5 4 6 32 7 5 8 2 9 1 10 34 11 35 13 36 14
REMARK SMILES IDX 40 15 37 16 39 17 38 18 6 19 7 20 8 21 11 24 12 25 31 26
REMARK SMILES IDX 13 27 28 28 14 29 29 30 30 31 15 32 16 33 27 34 17 35 26 36
REMARK SMILES IDX 18 37 19 38 20 39 25 40 21 41 24 42 22 43 23 44
REMARK H PARENT 10 2 34 12 7 22 7 23
REMARK Flexibility Score: inf
ROOT
ATOM      1  N   UNL     1      26.771  33.211  12.185  1.00  0.00    -0.338 N 
ATOM      2  H   UNL     1      27.192  33.519  11.281  1.00  0.00     0.168 HD
ENDROOT
BRANCH   1   3
ATOM      3  C   UNL     1      27.662  32.675  13.171  1.00  0.00     0.164 A 
ATOM      4  C   UNL     1      29.255  31.645  15.185  1.00  0.00     0.084 A 
ATOM      5  C   UNL     1      28.600  32.884  15.353  1.00  0.00     0.150 A 
ATOM      6  N   UNL     1      29.109  30.983  14.006  1.00  0.00    -0.240 NA
ATOM      7  N   UNL     1      27.827  33.352  14.336  1.00  0.00    -0.209 NA
ATOM      8  C   UNL     1      28.340  31.451  12.988  1.00  0.00     0.171 A 
BRANCH   4   9
ATOM      9  C   UNL     1      30.153  31.039  16.232  1.00  0.00     0.057 C 
ATOM     10  C   UNL     1      31.137  30.051  15.613  1.00  0.00     0.011 C 
ENDBRANCH   4   9
BRANCH   5  11
ATOM     11  N   UNL     1      28.716  33.654  16.565  1.00  0.00    -0.366 N 
ATOM     12  H   UNL     1      29.662  33.896  16.932  1.00  0.00     0.162 HD
BRANCH  11  13
ATOM     13  C   UNL     1      27.539  34.059  17.349  1.00  0.00     0.085 C 
ATOM     14  C   UNL     1      26.730  32.826  17.788  1.00  0.00     0.053 C 
ATOM     15  C   UNL     1      27.967  34.876  18.588  1.00  0.00     0.053 C 
ATOM     16  C   UNL     1      27.483  32.001  18.860  1.00  0.00     0.162 C 
ATOM     17  C   UNL     1      28.278  33.971  19.797  1.00  0.00     0.162 C 
ATOM     18  O   UNL     1      28.625  32.667  19.378  1.00  0.00    -0.381 OA
ENDBRANCH  11  13
ENDBRANCH   5  11
BRANCH   8  19
ATOM     19  C   UNL     1      28.271  30.669  11.731  1.00  0.00     0.271 C 
ATOM     20  N   UNL     1      28.854  29.365  11.656  1.00  0.00    -0.364 N 
ATOM     21  O   UNL     1      27.718  31.149  10.704  1.00  0.00    -0.268 OA
ATOM     22  H   UNL     1      29.320  28.930  12.483  1.00  0.00     0.160 HD
ATOM     23  H   UNL     1      28.801  28.820  10.767  1.00  0.00     0.160 HD
ENDBRANCH   8  19
ENDBRANCH   1   3
BRANCH   1  24
ATOM     24  C   UNL     1      25.410  33.588  12.473  1.00  0.00     0.043 A 
ATOM     25  C   UNL     1      24.577  32.686  13.150  1.00  0.00     0.028 A 
ATOM     26  C   UNL     1      24.887  34.831  12.070  1.00  0.00     0.074 A 
ATOM     27  C   UNL     1      23.251  33.016  13.428  1.00  0.00     0.032 A 
ATOM     28  C   UNL     1      23.547  35.172  12.344  1.00  0.00     0.144 A 
ATOM     29  C   UNL     1      22.728  34.256  13.032  1.00  0.00     0.079 A 
BRANCH  28  30
ATOM     30  O   UNL     1      22.995  36.396  11.930  1.00  0.00    -0.495 OA
ATOM     31  C   UNL     1      23.270  37.654  12.536  1.00  0.00     0.278 C 
ENDBRANCH  28  30
BRANCH  29  32
ATOM     32  N   UNL     1      21.352  34.567  13.316  1.00  0.00    -0.368 N 
ATOM     33  C   UNL     1      20.989  35.435  14.442  1.00  0.00     0.118 C 
ATOM     34  C   UNL     1      20.294  34.133  12.396  1.00  0.00     0.118 C 
ATOM     35  C   UNL     1      19.845  34.804  15.242  1.00  0.00     0.040 C 
ATOM     36  C   UNL     1      19.160  33.471  13.183  1.00  0.00     0.040 C 
ATOM     37  C   UNL     1      18.675  34.412  14.316  1.00  0.00     0.060 C 
BRANCH  37  38
ATOM     38  N   UNL     1      17.539  33.867  15.107  1.00  0.00    -0.298 NA
ATOM     39  C   UNL     1      16.190  34.005  14.498  1.00  0.00     0.100 C 
ATOM     40  C   UNL     1      17.605  34.266  16.531  1.00  0.00     0.100 C 
ATOM     41  C   UNL     1      15.318  35.018  15.252  1.00  0.00     0.099 C 
ATOM     42  C   UNL     1      16.297  33.931  17.262  1.00  0.00     0.099 C 
ATOM     43  N   UNL     1      15.121  34.615  16.664  1.00  0.00    -0.304 NA
ATOM     44  C   UNL     1      14.703  35.772  17.471  1.00  0.00     0.105 C 
ENDBRANCH  37  38
ENDBRANCH  29  32
ENDBRANCH   1  24
TORSDOF 9
ENDMDL
MODEL 15
REMARK VINA RESULT:    -8.270      2.908      5.492
REMARK INTER + INTRA:         -14.344
REMARK INTER:                 -12.517
REMARK INTRA:                  -1.826
REMARK UNBOUND:                -1.723
REMARK SMILES CCc1nc(C(N)=O)c(Nc2ccc(N3CCC(N4CCN(C)CC4)CC3)c(OC)c2)nc1NC1CCOCC1
REMARK SMILES IDX 10 1 9 3 3 4 33 5 4 6 32 7 5 8 2 9 1 10 34 11 35 13 36 14
REMARK SMILES IDX 40 15 37 16 39 17 38 18 6 19 7 20 8 21 11 24 12 25 31 26
REMARK SMILES IDX 13 27 28 28 14 29 29 30 30 31 15 32 16 33 27 34 17 35 26 36
REMARK SMILES IDX 18 37 19 38 20 39 25 40 21 41 24 42 22 43 23 44
REMARK H PARENT 10 2 34 12 7 22 7 23
REMARK Flexibility Score: inf
ROOT
ATOM      1  N   UNL     1      19.910  33.651  12.606  1.00  0.00    -0.338 N 
ATOM      2  H   UNL     1      19.868  33.094  11.724  1.00  0.00     0.168 HD
ENDROOT
BRANCH   1   3
ATOM      3  C   UNL     1      18.668  33.924  13.266  1.00  0.00     0.164 A 
ATOM      4  C   UNL     1      16.301  34.613  14.523  1.00  0.00     0.084 A 
ATOM      5  C   UNL     1      17.538  35.083  15.016  1.00  0.00     0.150 A 
ATOM      6  N   UNL     1      16.300  33.796  13.436  1.00  0.00    -0.240 NA
ATOM      7  N   UNL     1      18.676  34.718  14.367  1.00  0.00    -0.209 NA
ATOM      8  C   UNL     1      17.436  33.427  12.788  1.00  0.00     0.171 A 
BRANCH   4   9
ATOM      9  C   UNL     1      14.980  34.933  15.172  1.00  0.00     0.057 C 
ATOM     10  C   UNL     1      14.599  33.874  16.202  1.00  0.00     0.011 C 
ENDBRANCH   4   9
BRANCH   5  11
ATOM     11  N   UNL     1      17.626  35.940  16.170  1.00  0.00    -0.366 N 
ATOM     12  H   UNL     1      17.780  36.963  16.041  1.00  0.00     0.162 HD
BRANCH  11  13
ATOM     13  C   UNL     1      17.575  35.411  17.542  1.00  0.00     0.085 C 
ATOM     14  C   UNL     1      18.948  34.858  17.962  1.00  0.00     0.053 C 
ATOM     15  C   UNL     1      17.124  36.509  18.531  1.00  0.00     0.053 C 
ATOM     16  C   UNL     1      19.983  35.992  18.162  1.00  0.00     0.162 C 
ATOM     17  C   UNL     1      18.315  37.338  19.053  1.00  0.00     0.162 C 
ATOM     18  O   UNL     1      19.402  37.288  18.152  1.00  0.00    -0.381 OA
ENDBRANCH  11  13
ENDBRANCH   5  11
BRANCH   8  19
ATOM     19  C   UNL     1      17.329  32.506  11.632  1.00  0.00     0.271 C 
ATOM     20  N   UNL     1      16.084  32.342  10.950  1.00  0.00    -0.364 N 
ATOM     21  O   UNL     1      18.328  31.838  11.247  1.00  0.00    -0.268 OA
ATOM     22  H   UNL     1      15.233  32.877  11.235  1.00  0.00     0.160 HD
ATOM     23  H   UNL     1      16.016  31.692  10.135  1.00  0.00     0.160 HD
ENDBRANCH   8  19
ENDBRANCH   1   3
BRANCH   1  24
ATOM     24  C   UNL     1      21.195  33.866  13.222  1.00  0.00     0.043 A 
ATOM     25  C   UNL     1      22.108  34.739  12.615  1.00  0.00     0.028 A 
ATOM     26  C   UNL     1      21.566  33.201  14.406  1.00  0.00     0.074 A 
ATOM     27  C   UNL     1      23.366  34.955  13.180  1.00  0.00     0.032 A 
ATOM     28  C   UNL     1      22.836  33.410  14.981  1.00  0.00     0.144 A 
ATOM     29  C   UNL     1      23.738  34.298  14.362  1.00  0.00     0.079 A 
BRANCH  28  30
ATOM     30  O   UNL     1      23.240  32.740  16.149  1.00  0.00    -0.495 OA
ATOM     31  C   UNL     1      22.730  33.004  17.450  1.00  0.00     0.278 C 
ENDBRANCH  28  30
BRANCH  29  32
ATOM     32  N   UNL     1      25.047  34.524  14.916  1.00  0.00    -0.368 N 
ATOM     33  C   UNL     1      26.238  33.907  14.320  1.00  0.00     0.118 C 
ATOM     34  C   UNL     1      25.228  35.491  16.004  1.00  0.00     0.118 C 
ATOM     35  C   UNL     1      27.108  33.284  15.416  1.00  0.00     0.040 C 
ATOM     36  C   UNL     1      26.070  34.867  17.120  1.00  0.00     0.040 C 
ATOM     37  C   UNL     1      27.393  34.303  16.540  1.00  0.00     0.060 C 
BRANCH  37  38
ATOM     38  N   UNL     1      28.297  33.715  17.565  1.00  0.00    -0.298 NA
ATOM     39  C   UNL     1      29.344  32.788  17.061  1.00  0.00     0.100 C 
ATOM     40  C   UNL     1      27.556  33.210  18.743  1.00  0.00     0.100 C 
ATOM     41  C   UNL     1      29.075  31.335  17.474  1.00  0.00     0.099 C 
ATOM     42  C   UNL     1      28.465  32.369  19.651  1.00  0.00     0.099 C 
ATOM     43  N   UNL     1      29.037  31.192  18.947  1.00  0.00    -0.304 NA
ATOM     44  C   UNL     1      28.340  29.951  19.321  1.00  0.00     0.105 C 
ENDBRANCH  37  38
ENDBRANCH  29  32
ENDBRANCH   1  24
TORSDOF 9
ENDMDL
