MODEL 1
REMARK VINA RESULT:    -9.111      0.000      0.000
REMARK INTER + INTRA:         -13.913
REMARK INTER:                 -12.839
REMARK INTRA:                  -1.074
REMARK UNBOUND:                -1.074
REMARK SMILES CCN1CCN(Cc2ccc(Nc3ncc(F)c(-c4cc(F)c5nc(C)n(C(C)C)c5c4)n3)nc2)CC1
REMARK SMILES IDX 8 1 9 2 10 3 11 4 34 5 35 6 7 7 6 8 3 9 4 10 37 11 5 12
REMARK SMILES IDX 36 13 2 14 1 15 12 16 13 18 14 19 33 20 15 21 18 22 16 23
REMARK SMILES IDX 17 24 19 25 20 26 32 27 21 28 31 29 22 30 23 31 27 32 24 33
REMARK SMILES IDX 25 34 26 35 28 36 29 37 30 38
REMARK H PARENT 12 17
REMARK Flexibility Score: inf
ROOT
ATOM      1  C   UNL     1      17.892  16.051  15.819  1.00  0.00    -0.015 A 
ATOM      2  C   UNL     1      16.566  16.374  16.141  1.00  0.00     0.010 A 
ATOM      3  C   UNL     1      15.589  16.407  15.140  1.00  0.00     0.047 A 
ATOM      4  C   UNL     1      15.958  16.153  13.807  1.00  0.00     0.132 A 
ATOM      5  N   UNL     1      17.248  15.818  13.528  1.00  0.00    -0.239 NA
ATOM      6  C   UNL     1      18.209  15.764  14.485  1.00  0.00     0.118 A 
ENDROOT
BRANCH   1   7
ATOM      7  C   UNL     1      18.982  16.167  16.843  1.00  0.00     0.121 C 
BRANCH   7   8
ATOM      8  N   UNL     1      19.534  14.816  17.086  1.00  0.00    -0.296 NA
ATOM      9  N   UNL     1      20.598  13.059  19.238  1.00  0.00    -0.301 NA
ATOM     10  C   UNL     1      21.174  14.398  18.932  1.00  0.00     0.100 C 
ATOM     11  C   UNL     1      19.422  12.727  18.390  1.00  0.00     0.100 C 
ATOM     12  C   UNL     1      20.970  14.795  17.460  1.00  0.00     0.100 C 
ATOM     13  C   UNL     1      18.671  13.988  17.953  1.00  0.00     0.100 C 
BRANCH   9  14
ATOM     14  C   UNL     1      21.633  12.004  19.160  1.00  0.00     0.081 C 
ATOM     15  C   UNL     1      21.596  11.273  17.816  1.00  0.00     0.021 C 
ENDBRANCH   9  14
ENDBRANCH   7   8
ENDBRANCH   1   7
BRANCH   4  16
ATOM     16  N   UNL     1      15.009  16.195  12.730  1.00  0.00    -0.309 N 
ATOM     17  H   UNL     1      14.861  17.122  12.264  1.00  0.00     0.171 HD
BRANCH  16  18
ATOM     18  C   UNL     1      14.069  15.156  12.419  1.00  0.00     0.229 A 
ATOM     19  N   UNL     1      13.834  14.774  11.134  1.00  0.00    -0.218 NA
ATOM     20  N   UNL     1      13.423  14.523  13.432  1.00  0.00    -0.210 NA
ATOM     21  C   UNL     1      12.946  13.790  10.846  1.00  0.00     0.156 A 
ATOM     22  C   UNL     1      12.531  13.518  13.204  1.00  0.00     0.112 A 
ATOM     23  C   UNL     1      12.261  13.143  11.874  1.00  0.00     0.167 A 
ATOM     24  F   UNL     1      11.315  12.225  11.563  1.00  0.00    -0.203 F 
BRANCH  22  25
ATOM     25  C   UNL     1      11.856  12.888  14.369  1.00  0.00     0.008 A 
ATOM     26  C   UNL     1      10.530  13.279  14.697  1.00  0.00     0.052 A 
ATOM     27  C   UNL     1      12.520  11.937  15.186  1.00  0.00     0.039 A 
ATOM     28  C   UNL     1       9.864  12.716  15.798  1.00  0.00     0.151 A 
ATOM     29  C   UNL     1      11.825  11.401  16.278  1.00  0.00     0.072 A 
ATOM     30  F   UNL     1       8.591  13.072  16.103  1.00  0.00    -0.205 F 
ATOM     31  C   UNL     1      10.545  11.774  16.560  1.00  0.00     0.124 A 
ATOM     32  N   UNL     1      12.220  10.458  17.163  1.00  0.00    -0.326 N 
ATOM     33  N   UNL     1      10.069  11.080  17.604  1.00  0.00    -0.230 NA
ATOM     34  C   UNL     1      11.107  10.275  17.943  1.00  0.00     0.107 A 
ATOM     35  C   UNL     1      10.980   9.276  19.053  1.00  0.00     0.088 C 
BRANCH  32  36
ATOM     36  C   UNL     1      13.495   9.713  17.133  1.00  0.00     0.083 C 
ATOM     37  C   UNL     1      13.691   8.919  15.834  1.00  0.00     0.031 C 
ATOM     38  C   UNL     1      14.667  10.656  17.403  1.00  0.00     0.031 C 
ENDBRANCH  32  36
ENDBRANCH  22  25
ENDBRANCH  16  18
ENDBRANCH   4  16
TORSDOF 7
ENDMDL
MODEL 2
REMARK VINA RESULT:    -8.919      4.769      8.140
REMARK INTER + INTRA:         -13.643
REMARK INTER:                 -12.703
REMARK INTRA:                  -0.940
REMARK UNBOUND:                -1.074
REMARK SMILES CCN1CCN(Cc2ccc(Nc3ncc(F)c(-c4cc(F)c5nc(C)n(C(C)C)c5c4)n3)nc2)CC1
REMARK SMILES IDX 8 1 9 2 10 3 11 4 34 5 35 6 7 7 6 8 3 9 4 10 37 11 5 12
REMARK SMILES IDX 36 13 2 14 1 15 12 16 13 18 14 19 33 20 15 21 18 22 16 23
REMARK SMILES IDX 17 24 19 25 20 26 32 27 21 28 31 29 22 30 23 31 27 32 24 33
REMARK SMILES IDX 25 34 26 35 28 36 29 37 30 38
REMARK H PARENT 12 17
REMARK Flexibility Score: inf
ROOT
ATOM      1  C   UNL     1      13.094  14.964   8.108  1.00  0.00    -0.015 A 
ATOM      2  C   UNL     1      13.509  14.403   9.323  1.00  0.00     0.010 A 
ATOM      3  C   UNL     1      12.564  14.060  10.297  1.00  0.00     0.047 A 
ATOM      4  C   UNL     1      11.204  14.323  10.060  1.00  0.00     0.132 A 
ATOM      5  N   UNL     1      10.827  14.847   8.861  1.00  0.00    -0.239 NA
ATOM      6  C   UNL     1      11.725  15.172   7.895  1.00  0.00     0.118 A 
ENDROOT
BRANCH   1   7
ATOM      7  C   UNL     1      14.096  15.486   7.120  1.00  0.00     0.121 C 
BRANCH   7   8
ATOM      8  N   UNL     1      14.247  14.484   6.042  1.00  0.00    -0.296 NA
ATOM      9  N   UNL     1      16.237  13.347   4.147  1.00  0.00    -0.301 NA
ATOM     10  C   UNL     1      15.917  14.800   4.203  1.00  0.00     0.100 C 
ATOM     11  C   UNL     1      15.494  12.550   5.160  1.00  0.00     0.100 C 
ATOM     12  C   UNL     1      14.483  15.060   4.695  1.00  0.00     0.100 C 
ATOM     13  C   UNL     1      15.166  13.386   6.401  1.00  0.00     0.100 C 
BRANCH   9  14
ATOM     14  C   UNL     1      16.032  12.809   2.783  1.00  0.00     0.081 C 
ATOM     15  C   UNL     1      15.097  11.597   2.787  1.00  0.00     0.021 C 
ENDBRANCH   9  14
ENDBRANCH   7   8
ENDBRANCH   1   7
BRANCH   4  16
ATOM     16  N   UNL     1      10.187  14.018  11.028  1.00  0.00    -0.309 N 
ATOM     17  H   UNL     1       9.295  13.604  10.664  1.00  0.00     0.171 HD
BRANCH  16  18
ATOM     18  C   UNL     1      10.183  14.467  12.390  1.00  0.00     0.229 A 
ATOM     19  N   UNL     1      10.117  15.790  12.701  1.00  0.00    -0.218 NA
ATOM     20  N   UNL     1      10.219  13.547  13.390  1.00  0.00    -0.210 NA
ATOM     21  C   UNL     1      10.113  16.208  13.992  1.00  0.00     0.156 A 
ATOM     22  C   UNL     1      10.202  13.908  14.704  1.00  0.00     0.112 A 
ATOM     23  C   UNL     1      10.167  15.277  15.029  1.00  0.00     0.167 A 
ATOM     24  F   UNL     1      10.249  15.716  16.307  1.00  0.00    -0.203 F 
BRANCH  22  25
ATOM     25  C   UNL     1      10.258  12.839  15.735  1.00  0.00     0.008 A 
ATOM     26  C   UNL     1       9.113  12.593  16.541  1.00  0.00     0.052 A 
ATOM     27  C   UNL     1      11.441  12.090  15.965  1.00  0.00     0.039 A 
ATOM     28  C   UNL     1       9.132  11.601  17.536  1.00  0.00     0.151 A 
ATOM     29  C   UNL     1      11.422  11.112  16.969  1.00  0.00     0.072 A 
ATOM     30  F   UNL     1       8.035  11.350  18.293  1.00  0.00    -0.205 F 
ATOM     31  C   UNL     1      10.305  10.877  17.713  1.00  0.00     0.124 A 
ATOM     32  N   UNL     1      12.394  10.248  17.339  1.00  0.00    -0.326 N 
ATOM     33  N   UNL     1      10.505   9.856  18.559  1.00  0.00    -0.230 NA
ATOM     34  C   UNL     1      11.784   9.482  18.298  1.00  0.00     0.107 A 
ATOM     35  C   UNL     1      12.406   8.315  19.002  1.00  0.00     0.088 C 
BRANCH  32  36
ATOM     36  C   UNL     1      13.717  10.097  16.699  1.00  0.00     0.083 C 
ATOM     37  C   UNL     1      14.881  10.336  17.670  1.00  0.00     0.031 C 
ATOM     38  C   UNL     1      13.822   8.735  16.013  1.00  0.00     0.031 C 
ENDBRANCH  32  36
ENDBRANCH  22  25
ENDBRANCH  16  18
ENDBRANCH   4  16
TORSDOF 7
ENDMDL
MODEL 3
REMARK VINA RESULT:    -8.903      4.890      9.680
REMARK INTER + INTRA:         -13.621
REMARK INTER:                 -13.214
REMARK INTRA:                  -0.406
REMARK UNBOUND:                -1.074
REMARK SMILES CCN1CCN(Cc2ccc(Nc3ncc(F)c(-c4cc(F)c5nc(C)n(C(C)C)c5c4)n3)nc2)CC1
REMARK SMILES IDX 8 1 9 2 10 3 11 4 34 5 35 6 7 7 6 8 3 9 4 10 37 11 5 12
REMARK SMILES IDX 36 13 2 14 1 15 12 16 13 18 14 19 33 20 15 21 18 22 16 23
REMARK SMILES IDX 17 24 19 25 20 26 32 27 21 28 31 29 22 30 23 31 27 32 24 33
REMARK SMILES IDX 25 34 26 35 28 36 29 37 30 38
REMARK H PARENT 12 17
REMARK Flexibility Score: inf
ROOT
ATOM      1  C   UNL     1      11.976  12.483  14.585  1.00  0.00    -0.015 A 
ATOM      2  C   UNL     1      11.959  12.073  13.245  1.00  0.00     0.010 A 
ATOM      3  C   UNL     1      12.447  12.923  12.246  1.00  0.00     0.047 A 
ATOM      4  C   UNL     1      12.913  14.202  12.594  1.00  0.00     0.132 A 
ATOM      5  N   UNL     1      12.940  14.564  13.907  1.00  0.00    -0.239 NA
ATOM      6  C   UNL     1      12.488  13.750  14.895  1.00  0.00     0.118 A 
ENDROOT
BRANCH   1   7
ATOM      7  C   UNL     1      11.314  11.659  15.649  1.00  0.00     0.121 C 
BRANCH   7   8
ATOM      8  N   UNL     1      12.336  11.293  16.654  1.00  0.00    -0.296 NA
ATOM      9  N   UNL     1      13.493   8.963  18.097  1.00  0.00    -0.301 NA
ATOM     10  C   UNL     1      12.042   9.296  18.137  1.00  0.00     0.100 C 
ATOM     11  C   UNL     1      14.275   9.886  17.232  1.00  0.00     0.100 C 
ATOM     12  C   UNL     1      11.786  10.800  17.941  1.00  0.00     0.100 C 
ATOM     13  C   UNL     1      13.418  10.456  16.098  1.00  0.00     0.100 C 
BRANCH   9  14
ATOM     14  C   UNL     1      14.060   8.894  19.462  1.00  0.00     0.081 C 
ATOM     15  C   UNL     1      13.734   7.563  20.144  1.00  0.00     0.021 C 
ENDBRANCH   9  14
ENDBRANCH   7   8
ENDBRANCH   1   7
BRANCH   4  16
ATOM     16  N   UNL     1      13.404  15.131  11.615  1.00  0.00    -0.309 N 
ATOM     17  H   UNL     1      13.928  15.964  11.973  1.00  0.00     0.171 HD
BRANCH  16  18
ATOM     18  C   UNL     1      13.017  15.153  10.233  1.00  0.00     0.229 A 
ATOM     19  N   UNL     1      11.708  15.201   9.864  1.00  0.00    -0.218 NA
ATOM     20  N   UNL     1      13.981  15.156   9.276  1.00  0.00    -0.210 NA
ATOM     21  C   UNL     1      11.349  15.223   8.556  1.00  0.00     0.156 A 
ATOM     22  C   UNL     1      13.680  15.192   7.948  1.00  0.00     0.112 A 
ATOM     23  C   UNL     1      12.326  15.208   7.561  1.00  0.00     0.167 A 
ATOM     24  F   UNL     1      11.947  15.144   6.263  1.00  0.00    -0.203 F 
BRANCH  22  25
ATOM     25  C   UNL     1      14.795  15.178   6.965  1.00  0.00     0.008 A 
ATOM     26  C   UNL     1      15.591  16.344   6.802  1.00  0.00     0.052 A 
ATOM     27  C   UNL     1      15.056  14.043   6.154  1.00  0.00     0.039 A 
ATOM     28  C   UNL     1      16.644  16.375   5.874  1.00  0.00     0.151 A 
ATOM     29  C   UNL     1      16.112  14.113   5.237  1.00  0.00     0.072 A 
ATOM     30  F   UNL     1      17.418  17.479   5.730  1.00  0.00    -0.205 F 
ATOM     31  C   UNL     1      16.877  15.234   5.115  1.00  0.00     0.124 A 
ATOM     32  N   UNL     1      16.581  13.160   4.399  1.00  0.00    -0.326 N 
ATOM     33  N   UNL     1      17.863  15.040   4.226  1.00  0.00    -0.230 NA
ATOM     34  C   UNL     1      17.667  13.761   3.817  1.00  0.00     0.107 A 
ATOM     35  C   UNL     1      18.600  13.110   2.842  1.00  0.00     0.088 C 
BRANCH  32  36
ATOM     36  C   UNL     1      16.104  11.765   4.311  1.00  0.00     0.083 C 
ATOM     37  C   UNL     1      15.510  11.253   5.630  1.00  0.00     0.031 C 
ATOM     38  C   UNL     1      15.120  11.613   3.151  1.00  0.00     0.031 C 
ENDBRANCH  32  36
ENDBRANCH  22  25
ENDBRANCH  16  18
ENDBRANCH   4  16
TORSDOF 7
ENDMDL
MODEL 4
REMARK VINA RESULT:    -8.751      4.259      7.567
REMARK INTER + INTRA:         -13.406
REMARK INTER:                 -12.451
REMARK INTRA:                  -0.955
REMARK UNBOUND:                -1.074
REMARK SMILES CCN1CCN(Cc2ccc(Nc3ncc(F)c(-c4cc(F)c5nc(C)n(C(C)C)c5c4)n3)nc2)CC1
REMARK SMILES IDX 8 1 9 2 10 3 11 4 34 5 35 6 7 7 6 8 3 9 4 10 37 11 5 12
REMARK SMILES IDX 36 13 2 14 1 15 12 16 13 18 14 19 33 20 15 21 18 22 16 23
REMARK SMILES IDX 17 24 19 25 20 26 32 27 21 28 31 29 22 30 23 31 27 32 24 33
REMARK SMILES IDX 25 34 26 35 28 36 29 37 30 38
REMARK H PARENT 12 17
REMARK Flexibility Score: inf
ROOT
ATOM      1  C   UNL     1      23.096   9.180  17.212  1.00  0.00    -0.015 A 
ATOM      2  C   UNL     1      22.501   9.445  18.453  1.00  0.00     0.010 A 
ATOM      3  C   UNL     1      21.794  10.636  18.652  1.00  0.00     0.047 A 
ATOM      4  C   UNL     1      21.724  11.579  17.612  1.00  0.00     0.132 A 
ATOM      5  N   UNL     1      22.292  11.285  16.409  1.00  0.00    -0.239 NA
ATOM      6  C   UNL     1      22.967  10.127  16.188  1.00  0.00     0.118 A 
ENDROOT
BRANCH   1   7
ATOM      7  C   UNL     1      23.989   7.989  17.027  1.00  0.00     0.121 C 
BRANCH   7   8
ATOM      8  N   UNL     1      23.560   6.937  17.974  1.00  0.00    -0.296 NA
ATOM      9  N   UNL     1      23.909   4.051  18.604  1.00  0.00    -0.301 NA
ATOM     10  C   UNL     1      23.440   4.534  17.276  1.00  0.00     0.100 C 
ATOM     11  C   UNL     1      24.221   5.158  19.547  1.00  0.00     0.100 C 
ATOM     12  C   UNL     1      22.705   5.882  17.375  1.00  0.00     0.100 C 
ATOM     13  C   UNL     1      24.667   6.421  18.802  1.00  0.00     0.100 C 
BRANCH   9  14
ATOM     14  C   UNL     1      22.944   3.097  19.195  1.00  0.00     0.081 C 
ATOM     15  C   UNL     1      22.063   3.765  20.252  1.00  0.00     0.021 C 
ENDBRANCH   9  14
ENDBRANCH   7   8
ENDBRANCH   1   7
BRANCH   4  16
ATOM     16  N   UNL     1      21.036  12.831  17.760  1.00  0.00    -0.309 N 
ATOM     17  H   UNL     1      21.525  13.686  17.400  1.00  0.00     0.171 HD
BRANCH  16  18
ATOM     18  C   UNL     1      19.879  13.044  18.580  1.00  0.00     0.229 A 
ATOM     19  N   UNL     1      19.992  13.353  19.901  1.00  0.00    -0.218 NA
ATOM     20  N   UNL     1      18.645  12.963  18.017  1.00  0.00    -0.210 NA
ATOM     21  C   UNL     1      18.893  13.555  20.670  1.00  0.00     0.156 A 
ATOM     22  C   UNL     1      17.507  13.170  18.737  1.00  0.00     0.112 A 
ATOM     23  C   UNL     1      17.619  13.457  20.111  1.00  0.00     0.167 A 
ATOM     24  F   UNL     1      16.534  13.576  20.913  1.00  0.00    -0.203 F 
BRANCH  22  25
ATOM     25  C   UNL     1      16.196  13.048  18.047  1.00  0.00     0.008 A 
ATOM     26  C   UNL     1      15.556  14.221  17.563  1.00  0.00     0.052 A 
ATOM     27  C   UNL     1      15.549  11.794  17.899  1.00  0.00     0.039 A 
ATOM     28  C   UNL     1      14.310  14.148  16.918  1.00  0.00     0.151 A 
ATOM     29  C   UNL     1      14.305  11.762  17.255  1.00  0.00     0.072 A 
ATOM     30  F   UNL     1      13.706  15.263  16.438  1.00  0.00    -0.205 F 
ATOM     31  C   UNL     1      13.721  12.897  16.777  1.00  0.00     0.124 A 
ATOM     32  N   UNL     1      13.525  10.700  16.954  1.00  0.00    -0.326 N 
ATOM     33  N   UNL     1      12.575  12.609  16.143  1.00  0.00    -0.230 NA
ATOM     34  C   UNL     1      12.488  11.260  16.254  1.00  0.00     0.107 A 
ATOM     35  C   UNL     1      11.358  10.504  15.624  1.00  0.00     0.088 C 
BRANCH  32  36
ATOM     36  C   UNL     1      13.856   9.280  17.193  1.00  0.00     0.083 C 
ATOM     37  C   UNL     1      12.914   8.609  18.203  1.00  0.00     0.031 C 
ATOM     38  C   UNL     1      13.903   8.516  15.870  1.00  0.00     0.031 C 
ENDBRANCH  32  36
ENDBRANCH  22  25
ENDBRANCH  16  18
ENDBRANCH   4  16
TORSDOF 7
ENDMDL
MODEL 5
REMARK VINA RESULT:    -8.711      5.640     10.328
REMARK INTER + INTRA:         -13.350
REMARK INTER:                 -12.399
REMARK INTRA:                  -0.951
REMARK UNBOUND:                -1.074
REMARK SMILES CCN1CCN(Cc2ccc(Nc3ncc(F)c(-c4cc(F)c5nc(C)n(C(C)C)c5c4)n3)nc2)CC1
REMARK SMILES IDX 8 1 9 2 10 3 11 4 34 5 35 6 7 7 6 8 3 9 4 10 37 11 5 12
REMARK SMILES IDX 36 13 2 14 1 15 12 16 13 18 14 19 33 20 15 21 18 22 16 23
REMARK SMILES IDX 17 24 19 25 20 26 32 27 21 28 31 29 22 30 23 31 27 32 24 33
REMARK SMILES IDX 25 34 26 35 28 36 29 37 30 38
REMARK H PARENT 12 17
REMARK Flexibility Score: inf
ROOT
ATOM      1  C   UNL     1      12.342  12.930  13.319  1.00  0.00    -0.015 A 
ATOM      2  C   UNL     1      12.578  12.434  12.029  1.00  0.00     0.010 A 
ATOM      3  C   UNL     1      13.080  13.280  11.034  1.00  0.00     0.047 A 
ATOM      4  C   UNL     1      13.305  14.636  11.329  1.00  0.00     0.132 A 
ATOM      5  N   UNL     1      13.089  15.084  12.597  1.00  0.00    -0.239 NA
ATOM      6  C   UNL     1      12.618  14.278  13.583  1.00  0.00     0.118 A 
ENDROOT
BRANCH   1   7
ATOM      7  C   UNL     1      11.655  12.087  14.353  1.00  0.00     0.121 C 
BRANCH   7   8
ATOM      8  N   UNL     1      12.687  11.313  15.078  1.00  0.00    -0.296 NA
ATOM      9  N   UNL     1      13.104   9.632  17.496  1.00  0.00    -0.301 NA
ATOM     10  C   UNL     1      12.584  11.026  17.564  1.00  0.00     0.100 C 
ATOM     11  C   UNL     1      13.342   9.169  16.103  1.00  0.00     0.100 C 
ATOM     12  C   UNL     1      13.079  11.887  16.389  1.00  0.00     0.100 C 
ATOM     13  C   UNL     1      12.403   9.865  15.112  1.00  0.00     0.100 C 
BRANCH   9  14
ATOM     14  C   UNL     1      14.316   9.474  18.330  1.00  0.00     0.081 C 
ATOM     15  C   UNL     1      13.964   9.226  19.799  1.00  0.00     0.021 C 
ENDBRANCH   9  14
ENDBRANCH   7   8
ENDBRANCH   1   7
BRANCH   4  16
ATOM     16  N   UNL     1      13.796  15.561  10.346  1.00  0.00    -0.309 N 
ATOM     17  H   UNL     1      14.252  16.434  10.704  1.00  0.00     0.171 HD
BRANCH  16  18
ATOM     18  C   UNL     1      13.484  15.519   8.947  1.00  0.00     0.229 A 
ATOM     19  N   UNL     1      12.308  16.008   8.467  1.00  0.00    -0.218 NA
ATOM     20  N   UNL     1      14.397  15.007   8.080  1.00  0.00    -0.210 NA
ATOM     21  C   UNL     1      12.020  15.967   7.142  1.00  0.00     0.156 A 
ATOM     22  C   UNL     1      14.169  14.954   6.738  1.00  0.00     0.112 A 
ATOM     23  C   UNL     1      12.939  15.428   6.242  1.00  0.00     0.167 A 
ATOM     24  F   UNL     1      12.599  15.317   4.936  1.00  0.00    -0.203 F 
BRANCH  22  25
ATOM     25  C   UNL     1      15.214  14.365   5.862  1.00  0.00     0.008 A 
ATOM     26  C   UNL     1      15.032  13.050   5.352  1.00  0.00     0.052 A 
ATOM     27  C   UNL     1      16.410  15.066   5.557  1.00  0.00     0.039 A 
ATOM     28  C   UNL     1      16.004  12.454   4.532  1.00  0.00     0.151 A 
ATOM     29  C   UNL     1      17.358  14.437   4.739  1.00  0.00     0.072 A 
ATOM     30  F   UNL     1      15.825  11.208   4.028  1.00  0.00    -0.205 F 
ATOM     31  C   UNL     1      17.151  13.185   4.243  1.00  0.00     0.124 A 
ATOM     32  N   UNL     1      18.535  14.911   4.275  1.00  0.00    -0.326 N 
ATOM     33  N   UNL     1      18.159  12.822   3.436  1.00  0.00    -0.230 NA
ATOM     34  C   UNL     1      18.982  13.901   3.463  1.00  0.00     0.107 A 
ATOM     35  C   UNL     1      20.233  13.940   2.638  1.00  0.00     0.088 C 
BRANCH  32  36
ATOM     36  C   UNL     1      19.071  16.272   4.485  1.00  0.00     0.083 C 
ATOM     37  C   UNL     1      20.451  16.273   5.157  1.00  0.00     0.031 C 
ATOM     38  C   UNL     1      19.083  17.047   3.166  1.00  0.00     0.031 C 
ENDBRANCH  32  36
ENDBRANCH  22  25
ENDBRANCH  16  18
ENDBRANCH   4  16
TORSDOF 7
ENDMDL
MODEL 6
REMARK VINA RESULT:    -8.708      4.601      7.853
REMARK INTER + INTRA:         -13.345
REMARK INTER:                 -12.660
REMARK INTRA:                  -0.685
REMARK UNBOUND:                -1.074
REMARK SMILES CCN1CCN(Cc2ccc(Nc3ncc(F)c(-c4cc(F)c5nc(C)n(C(C)C)c5c4)n3)nc2)CC1
REMARK SMILES IDX 8 1 9 2 10 3 11 4 34 5 35 6 7 7 6 8 3 9 4 10 37 11 5 12
REMARK SMILES IDX 36 13 2 14 1 15 12 16 13 18 14 19 33 20 15 21 18 22 16 23
REMARK SMILES IDX 17 24 19 25 20 26 32 27 21 28 31 29 22 30 23 31 27 32 24 33
REMARK SMILES IDX 25 34 26 35 28 36 29 37 30 38
REMARK H PARENT 12 17
REMARK Flexibility Score: inf
ROOT
ATOM      1  C   UNL     1      12.692  14.913   8.699  1.00  0.00    -0.015 A 
ATOM      2  C   UNL     1      13.559  14.439   9.692  1.00  0.00     0.010 A 
ATOM      3  C   UNL     1      13.074  13.611  10.710  1.00  0.00     0.047 A 
ATOM      4  C   UNL     1      11.704  13.295  10.749  1.00  0.00     0.132 A 
ATOM      5  N   UNL     1      10.889  13.750   9.757  1.00  0.00    -0.239 NA
ATOM      6  C   UNL     1      11.342  14.541   8.750  1.00  0.00     0.118 A 
ENDROOT
BRANCH   1   7
ATOM      7  C   UNL     1      13.154  15.927   7.694  1.00  0.00     0.121 C 
BRANCH   7   8
ATOM      8  N   UNL     1      14.495  15.525   7.215  1.00  0.00    -0.296 NA
ATOM      9  N   UNL     1      16.157  15.334   4.756  1.00  0.00    -0.301 NA
ATOM     10  C   UNL     1      14.835  14.661   4.889  1.00  0.00     0.100 C 
ATOM     11  C   UNL     1      16.522  16.136   5.954  1.00  0.00     0.100 C 
ATOM     12  C   UNL     1      14.504  14.318   6.352  1.00  0.00     0.100 C 
ATOM     13  C   UNL     1      15.279  16.657   6.682  1.00  0.00     0.100 C 
BRANCH   9  14
ATOM     14  C   UNL     1      17.218  14.361   4.415  1.00  0.00     0.081 C 
ATOM     15  C   UNL     1      18.187  14.922   3.373  1.00  0.00     0.021 C 
ENDBRANCH   9  14
ENDBRANCH   7   8
ENDBRANCH   1   7
BRANCH   4  16
ATOM     16  N   UNL     1      11.138  12.471  11.780  1.00  0.00    -0.309 N 
ATOM     17  H   UNL     1      10.892  11.487  11.518  1.00  0.00     0.171 HD
BRANCH  16  18
ATOM     18  C   UNL     1      10.645  12.949  13.040  1.00  0.00     0.229 A 
ATOM     19  N   UNL     1      10.022  14.154  13.147  1.00  0.00    -0.218 NA
ATOM     20  N   UNL     1      10.779  12.166  14.143  1.00  0.00    -0.210 NA
ATOM     21  C   UNL     1       9.556  14.598  14.341  1.00  0.00     0.156 A 
ATOM     22  C   UNL     1      10.319  12.555  15.364  1.00  0.00     0.112 A 
ATOM     23  C   UNL     1       9.703  13.815  15.485  1.00  0.00     0.167 A 
ATOM     24  F   UNL     1       9.310  14.313  16.682  1.00  0.00    -0.203 F 
BRANCH  22  25
ATOM     25  C   UNL     1      10.519  11.645  16.522  1.00  0.00     0.008 A 
ATOM     26  C   UNL     1       9.426  11.376  17.391  1.00  0.00     0.052 A 
ATOM     27  C   UNL     1      11.786  11.073  16.808  1.00  0.00     0.039 A 
ATOM     28  C   UNL     1       9.579  10.533  18.503  1.00  0.00     0.151 A 
ATOM     29  C   UNL     1      11.901  10.241  17.929  1.00  0.00     0.072 A 
ATOM     30  F   UNL     1       8.533  10.260  19.322  1.00  0.00    -0.205 F 
ATOM     31  C   UNL     1      10.833   9.979  18.733  1.00  0.00     0.124 A 
ATOM     32  N   UNL     1      12.974   9.551  18.375  1.00  0.00    -0.326 N 
ATOM     33  N   UNL     1      11.167   9.108  19.697  1.00  0.00    -0.230 NA
ATOM     34  C   UNL     1      12.476   8.853  19.444  1.00  0.00     0.107 A 
ATOM     35  C   UNL     1      13.245   7.867  20.271  1.00  0.00     0.088 C 
BRANCH  32  36
ATOM     36  C   UNL     1      14.294   9.470  17.716  1.00  0.00     0.083 C 
ATOM     37  C   UNL     1      14.216   8.908  16.290  1.00  0.00     0.031 C 
ATOM     38  C   UNL     1      14.988  10.832  17.750  1.00  0.00     0.031 C 
ENDBRANCH  32  36
ENDBRANCH  22  25
ENDBRANCH  16  18
ENDBRANCH   4  16
TORSDOF 7
ENDMDL
MODEL 7
REMARK VINA RESULT:    -8.656      5.434      8.351
REMARK INTER + INTRA:         -13.272
REMARK INTER:                 -12.485
REMARK INTRA:                  -0.787
REMARK UNBOUND:                -1.074
REMARK SMILES CCN1CCN(Cc2ccc(Nc3ncc(F)c(-c4cc(F)c5nc(C)n(C(C)C)c5c4)n3)nc2)CC1
REMARK SMILES IDX 8 1 9 2 10 3 11 4 34 5 35 6 7 7 6 8 3 9 4 10 37 11 5 12
REMARK SMILES IDX 36 13 2 14 1 15 12 16 13 18 14 19 33 20 15 21 18 22 16 23
REMARK SMILES IDX 17 24 19 25 20 26 32 27 21 28 31 29 22 30 23 31 27 32 24 33
REMARK SMILES IDX 25 34 26 35 28 36 29 37 30 38
REMARK H PARENT 12 17
REMARK Flexibility Score: inf
ROOT
ATOM      1  C   UNL     1       9.342  14.474  10.928  1.00  0.00    -0.015 A 
ATOM      2  C   UNL     1      10.003  14.540  12.162  1.00  0.00     0.010 A 
ATOM      3  C   UNL     1       9.282  14.813  13.330  1.00  0.00     0.047 A 
ATOM      4  C   UNL     1       7.900  15.059  13.247  1.00  0.00     0.132 A 
ATOM      5  N   UNL     1       7.281  14.965  12.037  1.00  0.00    -0.239 NA
ATOM      6  C   UNL     1       7.958  14.685  10.894  1.00  0.00     0.118 A 
ENDROOT
BRANCH   1   7
ATOM      7  C   UNL     1      10.115  14.344   9.649  1.00  0.00     0.121 C 
BRANCH   7   8
ATOM      8  N   UNL     1      11.243  15.300   9.691  1.00  0.00    -0.296 NA
ATOM      9  N   UNL     1      13.333  16.554   7.985  1.00  0.00    -0.301 NA
ATOM     10  C   UNL     1      13.190  15.079   8.130  1.00  0.00     0.100 C 
ATOM     11  C   UNL     1      12.301  17.314   8.740  1.00  0.00     0.100 C 
ATOM     12  C   UNL     1      12.579  14.686   9.487  1.00  0.00     0.100 C 
ATOM     13  C   UNL     1      11.003  16.511   8.881  1.00  0.00     0.100 C 
BRANCH   9  14
ATOM     14  C   UNL     1      14.698  16.995   8.347  1.00  0.00     0.081 C 
ATOM     15  C   UNL     1      15.653  16.916   7.155  1.00  0.00     0.021 C 
ENDBRANCH   9  14
ENDBRANCH   7   8
ENDBRANCH   1   7
BRANCH   4  16
ATOM     16  N   UNL     1       7.107  15.368  14.404  1.00  0.00    -0.309 N 
ATOM     17  H   UNL     1       6.281  15.997  14.258  1.00  0.00     0.171 HD
BRANCH  16  18
ATOM     18  C   UNL     1       7.494  15.111  15.761  1.00  0.00     0.229 A 
ATOM     19  N   UNL     1       7.390  16.069  16.722  1.00  0.00    -0.218 NA
ATOM     20  N   UNL     1       7.946  13.875  16.097  1.00  0.00    -0.210 NA
ATOM     21  C   UNL     1       7.755  15.818  18.004  1.00  0.00     0.156 A 
ATOM     22  C   UNL     1       8.314  13.562  17.371  1.00  0.00     0.112 A 
ATOM     23  C   UNL     1       8.239  14.560  18.361  1.00  0.00     0.167 A 
ATOM     24  F   UNL     1       8.680  14.355  19.625  1.00  0.00    -0.203 F 
BRANCH  22  25
ATOM     25  C   UNL     1       8.812  12.190  17.651  1.00  0.00     0.008 A 
ATOM     26  C   UNL     1       8.147  11.396  18.624  1.00  0.00     0.052 A 
ATOM     27  C   UNL     1       9.961  11.670  17.002  1.00  0.00     0.039 A 
ATOM     28  C   UNL     1       8.596  10.100  18.927  1.00  0.00     0.151 A 
ATOM     29  C   UNL     1      10.381  10.375  17.333  1.00  0.00     0.072 A 
ATOM     30  F   UNL     1       7.951   9.333  19.841  1.00  0.00    -0.205 F 
ATOM     31  C   UNL     1       9.713   9.623  18.252  1.00  0.00     0.124 A 
ATOM     32  N   UNL     1      11.404   9.651  16.824  1.00  0.00    -0.326 N 
ATOM     33  N   UNL     1      10.258   8.401  18.351  1.00  0.00    -0.230 NA
ATOM     34  C   UNL     1      11.278   8.442  17.458  1.00  0.00     0.107 A 
ATOM     35  C   UNL     1      12.134   7.238  17.206  1.00  0.00     0.088 C 
BRANCH  32  36
ATOM     36  C   UNL     1      12.297  10.060  15.720  1.00  0.00     0.083 C 
ATOM     37  C   UNL     1      11.554  10.780  14.587  1.00  0.00     0.031 C 
ATOM     38  C   UNL     1      13.457  10.898  16.259  1.00  0.00     0.031 C 
ENDBRANCH  32  36
ENDBRANCH  22  25
ENDBRANCH  16  18
ENDBRANCH   4  16
TORSDOF 7
ENDMDL
MODEL 8
REMARK VINA RESULT:    -8.591      3.626      6.361
REMARK INTER + INTRA:         -13.181
REMARK INTER:                 -12.435
REMARK INTRA:                  -0.746
REMARK UNBOUND:                -1.074
REMARK SMILES CCN1CCN(Cc2ccc(Nc3ncc(F)c(-c4cc(F)c5nc(C)n(C(C)C)c5c4)n3)nc2)CC1
REMARK SMILES IDX 8 1 9 2 10 3 11 4 34 5 35 6 7 7 6 8 3 9 4 10 37 11 5 12
REMARK SMILES IDX 36 13 2 14 1 15 12 16 13 18 14 19 33 20 15 21 18 22 16 23
REMARK SMILES IDX 17 24 19 25 20 26 32 27 21 28 31 29 22 30 23 31 27 32 24 33
REMARK SMILES IDX 25 34 26 35 28 36 29 37 30 38
REMARK H PARENT 12 17
REMARK Flexibility Score: inf
ROOT
ATOM      1  C   UNL     1      22.843  11.342  16.923  1.00  0.00    -0.015 A 
ATOM      2  C   UNL     1      21.867  10.940  17.845  1.00  0.00     0.010 A 
ATOM      3  C   UNL     1      20.931  11.864  18.322  1.00  0.00     0.047 A 
ATOM      4  C   UNL     1      21.006  13.204  17.900  1.00  0.00     0.132 A 
ATOM      5  N   UNL     1      21.950  13.559  16.985  1.00  0.00    -0.239 NA
ATOM      6  C   UNL     1      22.858  12.676  16.496  1.00  0.00     0.118 A 
ENDROOT
BRANCH   1   7
ATOM      7  C   UNL     1      23.950  10.412  16.523  1.00  0.00     0.121 C 
BRANCH   7   8
ATOM      8  N   UNL     1      23.524   9.028  16.825  1.00  0.00    -0.296 NA
ATOM      9  N   UNL     1      24.438   6.200  16.692  1.00  0.00    -0.301 NA
ATOM     10  C   UNL     1      24.384   7.086  15.496  1.00  0.00     0.100 C 
ATOM     11  C   UNL     1      24.034   6.892  17.945  1.00  0.00     0.100 C 
ATOM     12  C   UNL     1      23.306   8.176  15.630  1.00  0.00     0.100 C 
ATOM     13  C   UNL     1      24.337   8.392  17.881  1.00  0.00     0.100 C 
BRANCH   9  14
ATOM     14  C   UNL     1      23.646   4.968  16.478  1.00  0.00     0.081 C 
ATOM     15  C   UNL     1      22.390   4.944  17.350  1.00  0.00     0.021 C 
ENDBRANCH   9  14
ENDBRANCH   7   8
ENDBRANCH   1   7
BRANCH   4  16
ATOM     16  N   UNL     1      20.091  14.206  18.371  1.00  0.00    -0.309 N 
ATOM     17  H   UNL     1      20.383  14.754  19.215  1.00  0.00     0.171 HD
BRANCH  16  18
ATOM     18  C   UNL     1      18.725  14.337  17.953  1.00  0.00     0.229 A 
ATOM     19  N   UNL     1      18.337  15.319  17.094  1.00  0.00    -0.218 NA
ATOM     20  N   UNL     1      17.807  13.443  18.404  1.00  0.00    -0.210 NA
ATOM     21  C   UNL     1      17.044  15.436  16.702  1.00  0.00     0.156 A 
ATOM     22  C   UNL     1      16.497  13.503  18.032  1.00  0.00     0.112 A 
ATOM     23  C   UNL     1      16.086  14.538  17.170  1.00  0.00     0.167 A 
ATOM     24  F   UNL     1      14.787  14.723  16.836  1.00  0.00    -0.203 F 
BRANCH  22  25
ATOM     25  C   UNL     1      15.555  12.495  18.582  1.00  0.00     0.008 A 
ATOM     26  C   UNL     1      15.414  12.373  19.992  1.00  0.00     0.052 A 
ATOM     27  C   UNL     1      14.824  11.621  17.736  1.00  0.00     0.039 A 
ATOM     28  C   UNL     1      14.544  11.422  20.550  1.00  0.00     0.151 A 
ATOM     29  C   UNL     1      13.969  10.683  18.329  1.00  0.00     0.072 A 
ATOM     30  F   UNL     1      14.393  11.316  21.894  1.00  0.00    -0.205 F 
ATOM     31  C   UNL     1      13.833  10.601  19.683  1.00  0.00     0.124 A 
ATOM     32  N   UNL     1      13.144   9.788  17.743  1.00  0.00    -0.326 N 
ATOM     33  N   UNL     1      12.914   9.680  20.011  1.00  0.00    -0.230 NA
ATOM     34  C   UNL     1      12.500   9.211  18.807  1.00  0.00     0.107 A 
ATOM     35  C   UNL     1      11.415   8.182  18.711  1.00  0.00     0.088 C 
BRANCH  32  36
ATOM     36  C   UNL     1      12.906   9.640  16.292  1.00  0.00     0.083 C 
ATOM     37  C   UNL     1      12.850  10.986  15.557  1.00  0.00     0.031 C 
ATOM     38  C   UNL     1      13.945   8.702  15.677  1.00  0.00     0.031 C 
ENDBRANCH  32  36
ENDBRANCH  22  25
ENDBRANCH  16  18
ENDBRANCH   4  16
TORSDOF 7
ENDMDL
MODEL 9
REMARK VINA RESULT:    -8.554      2.217      5.612
REMARK INTER + INTRA:         -13.129
REMARK INTER:                 -12.363
REMARK INTRA:                  -0.766
REMARK UNBOUND:                -1.074
REMARK SMILES CCN1CCN(Cc2ccc(Nc3ncc(F)c(-c4cc(F)c5nc(C)n(C(C)C)c5c4)n3)nc2)CC1
REMARK SMILES IDX 8 1 9 2 10 3 11 4 34 5 35 6 7 7 6 8 3 9 4 10 37 11 5 12
REMARK SMILES IDX 36 13 2 14 1 15 12 16 13 18 14 19 33 20 15 21 18 22 16 23
REMARK SMILES IDX 17 24 19 25 20 26 32 27 21 28 31 29 22 30 23 31 27 32 24 33
REMARK SMILES IDX 25 34 26 35 28 36 29 37 30 38
REMARK H PARENT 12 17
REMARK Flexibility Score: inf
ROOT
ATOM      1  C   UNL     1      17.837  14.881  17.681  1.00  0.00    -0.015 A 
ATOM      2  C   UNL     1      16.436  14.929  17.672  1.00  0.00     0.010 A 
ATOM      3  C   UNL     1      15.693  13.768  17.914  1.00  0.00     0.047 A 
ATOM      4  C   UNL     1      16.364  12.551  18.124  1.00  0.00     0.132 A 
ATOM      5  N   UNL     1      17.726  12.539  18.151  1.00  0.00    -0.239 NA
ATOM      6  C   UNL     1      18.467  13.656  17.936  1.00  0.00     0.118 A 
ENDROOT
BRANCH   1   7
ATOM      7  C   UNL     1      18.649  16.072  17.266  1.00  0.00     0.121 C 
BRANCH   7   8
ATOM      8  N   UNL     1      19.134  15.844  15.887  1.00  0.00    -0.296 NA
ATOM      9  N   UNL     1      19.433  17.179  13.245  1.00  0.00    -0.301 NA
ATOM     10  C   UNL     1      18.122  17.053  13.940  1.00  0.00     0.100 C 
ATOM     11  C   UNL     1      20.562  16.612  14.031  1.00  0.00     0.100 C 
ATOM     12  C   UNL     1      18.067  15.818  14.856  1.00  0.00     0.100 C 
ATOM     13  C   UNL     1      20.293  16.688  15.537  1.00  0.00     0.100 C 
BRANCH   9  14
ATOM     14  C   UNL     1      19.375  16.593  11.888  1.00  0.00     0.081 C 
ATOM     15  C   UNL     1      20.259  17.359  10.902  1.00  0.00     0.021 C 
ENDBRANCH   9  14
ENDBRANCH   7   8
ENDBRANCH   1   7
BRANCH   4  16
ATOM     16  N   UNL     1      15.660  11.320  18.354  1.00  0.00    -0.309 N 
ATOM     17  H   UNL     1      16.017  10.707  19.126  1.00  0.00     0.171 HD
BRANCH  16  18
ATOM     18  C   UNL     1      14.695  10.743  17.463  1.00  0.00     0.229 A 
ATOM     19  N   UNL     1      14.585   9.395  17.311  1.00  0.00    -0.218 NA
ATOM     20  N   UNL     1      13.853  11.562  16.780  1.00  0.00    -0.210 NA
ATOM     21  C   UNL     1      13.669   8.857  16.469  1.00  0.00     0.156 A 
ATOM     22  C   UNL     1      12.904  11.077  15.931  1.00  0.00     0.112 A 
ATOM     23  C   UNL     1      12.810   9.685  15.746  1.00  0.00     0.167 A 
ATOM     24  F   UNL     1      11.962   9.133  14.846  1.00  0.00    -0.203 F 
BRANCH  22  25
ATOM     25  C   UNL     1      12.033  12.043  15.211  1.00  0.00     0.008 A 
ATOM     26  C   UNL     1      10.733  12.314  15.717  1.00  0.00     0.052 A 
ATOM     27  C   UNL     1      12.452  12.666  14.008  1.00  0.00     0.039 A 
ATOM     28  C   UNL     1       9.875  13.210  15.057  1.00  0.00     0.151 A 
ATOM     29  C   UNL     1      11.567  13.550  13.376  1.00  0.00     0.072 A 
ATOM     30  F   UNL     1       8.641  13.485  15.547  1.00  0.00    -0.205 F 
ATOM     31  C   UNL     1      10.334  13.813  13.892  1.00  0.00     0.124 A 
ATOM     32  N   UNL     1      11.751  14.293  12.262  1.00  0.00    -0.326 N 
ATOM     33  N   UNL     1       9.698  14.736  13.155  1.00  0.00    -0.230 NA
ATOM     34  C   UNL     1      10.593  15.021  12.175  1.00  0.00     0.107 A 
ATOM     35  C   UNL     1      10.300  16.066  11.141  1.00  0.00     0.088 C 
BRANCH  32  36
ATOM     36  C   UNL     1      12.997  14.387  11.472  1.00  0.00     0.083 C 
ATOM     37  C   UNL     1      14.180  14.927  12.285  1.00  0.00     0.031 C 
ATOM     38  C   UNL     1      13.320  13.038  10.829  1.00  0.00     0.031 C 
ENDBRANCH  32  36
ENDBRANCH  22  25
ENDBRANCH  16  18
ENDBRANCH   4  16
TORSDOF 7
ENDMDL
MODEL 10
REMARK VINA RESULT:    -8.552      4.133      6.683
REMARK INTER + INTRA:         -13.126
REMARK INTER:                 -12.469
REMARK INTRA:                  -0.656
REMARK UNBOUND:                -1.074
REMARK SMILES CCN1CCN(Cc2ccc(Nc3ncc(F)c(-c4cc(F)c5nc(C)n(C(C)C)c5c4)n3)nc2)CC1
REMARK SMILES IDX 8 1 9 2 10 3 11 4 34 5 35 6 7 7 6 8 3 9 4 10 37 11 5 12
REMARK SMILES IDX 36 13 2 14 1 15 12 16 13 18 14 19 33 20 15 21 18 22 16 23
REMARK SMILES IDX 17 24 19 25 20 26 32 27 21 28 31 29 22 30 23 31 27 32 24 33
REMARK SMILES IDX 25 34 26 35 28 36 29 37 30 38
REMARK H PARENT 12 17
REMARK Flexibility Score: inf
ROOT
ATOM      1  C   UNL     1      22.573  11.743  17.190  1.00  0.00    -0.015 A 
ATOM      2  C   UNL     1      21.543  11.216  17.981  1.00  0.00     0.010 A 
ATOM      3  C   UNL     1      20.473  12.029  18.372  1.00  0.00     0.047 A 
ATOM      4  C   UNL     1      20.464  13.385  18.000  1.00  0.00     0.132 A 
ATOM      5  N   UNL     1      21.466  13.863  17.212  1.00  0.00    -0.239 NA
ATOM      6  C   UNL     1      22.505  13.089  16.806  1.00  0.00     0.118 A 
ENDROOT
BRANCH   1   7
ATOM      7  C   UNL     1      23.804  10.939  16.895  1.00  0.00     0.121 C 
BRANCH   7   8
ATOM      8  N   UNL     1      23.439   9.505  16.931  1.00  0.00    -0.296 NA
ATOM      9  N   UNL     1      24.457   6.798  16.238  1.00  0.00    -0.301 NA
ATOM     10  C   UNL     1      24.340   7.894  15.238  1.00  0.00     0.100 C 
ATOM     11  C   UNL     1      24.058   7.217  17.608  1.00  0.00     0.100 C 
ATOM     12  C   UNL     1      23.224   8.891  15.598  1.00  0.00     0.100 C 
ATOM     13  C   UNL     1      24.301   8.713  17.831  1.00  0.00     0.100 C 
BRANCH   9  14
ATOM     14  C   UNL     1      23.708   5.598  15.803  1.00  0.00     0.081 C 
ATOM     15  C   UNL     1      22.478   5.350  16.679  1.00  0.00     0.021 C 
ENDBRANCH   9  14
ENDBRANCH   7   8
ENDBRANCH   1   7
BRANCH   4  16
ATOM     16  N   UNL     1      19.408  14.277  18.390  1.00  0.00    -0.309 N 
ATOM     17  H   UNL     1      19.570  15.300  18.230  1.00  0.00     0.171 HD
BRANCH  16  18
ATOM     18  C   UNL     1      18.284  13.919  19.206  1.00  0.00     0.229 A 
ATOM     19  N   UNL     1      18.119  14.438  20.453  1.00  0.00    -0.218 NA
ATOM     20  N   UNL     1      17.351  13.065  18.709  1.00  0.00    -0.210 NA
ATOM     21  C   UNL     1      17.053  14.096  21.219  1.00  0.00     0.156 A 
ATOM     22  C   UNL     1      16.254  12.697  19.427  1.00  0.00     0.112 A 
ATOM     23  C   UNL     1      16.096  13.206  20.731  1.00  0.00     0.167 A 
ATOM     24  F   UNL     1      15.086  12.811  21.541  1.00  0.00    -0.203 F 
BRANCH  22  25
ATOM     25  C   UNL     1      15.289  11.747  18.815  1.00  0.00     0.008 A 
ATOM     26  C   UNL     1      14.884  11.942  17.467  1.00  0.00     0.052 A 
ATOM     27  C   UNL     1      14.729  10.675  19.558  1.00  0.00     0.039 A 
ATOM     28  C   UNL     1      13.963  11.074  16.858  1.00  0.00     0.151 A 
ATOM     29  C   UNL     1      13.811   9.833  18.917  1.00  0.00     0.072 A 
ATOM     30  F   UNL     1      13.590  11.246  15.565  1.00  0.00    -0.205 F 
ATOM     31  C   UNL     1      13.456  10.025  17.616  1.00  0.00     0.124 A 
ATOM     32  N   UNL     1      13.186   8.732  19.391  1.00  0.00    -0.326 N 
ATOM     33  N   UNL     1      12.621   9.059  17.205  1.00  0.00    -0.230 NA
ATOM     34  C   UNL     1      12.486   8.276  18.305  1.00  0.00     0.107 A 
ATOM     35  C   UNL     1      11.662   7.025  18.266  1.00  0.00     0.088 C 
BRANCH  32  36
ATOM     36  C   UNL     1      13.392   8.116  20.719  1.00  0.00     0.083 C 
ATOM     37  C   UNL     1      14.748   7.408  20.845  1.00  0.00     0.031 C 
ATOM     38  C   UNL     1      13.190   9.154  21.822  1.00  0.00     0.031 C 
ENDBRANCH  32  36
ENDBRANCH  22  25
ENDBRANCH  16  18
ENDBRANCH   4  16
TORSDOF 7
ENDMDL
MODEL 11
REMARK VINA RESULT:    -8.547      4.865      8.568
REMARK INTER + INTRA:         -13.119
REMARK INTER:                 -12.367
REMARK INTRA:                  -0.752
REMARK UNBOUND:                -1.074
REMARK SMILES CCN1CCN(Cc2ccc(Nc3ncc(F)c(-c4cc(F)c5nc(C)n(C(C)C)c5c4)n3)nc2)CC1
REMARK SMILES IDX 8 1 9 2 10 3 11 4 34 5 35 6 7 7 6 8 3 9 4 10 37 11 5 12
REMARK SMILES IDX 36 13 2 14 1 15 12 16 13 18 14 19 33 20 15 21 18 22 16 23
REMARK SMILES IDX 17 24 19 25 20 26 32 27 21 28 31 29 22 30 23 31 27 32 24 33
REMARK SMILES IDX 25 34 26 35 28 36 29 37 30 38
REMARK H PARENT 12 17
REMARK Flexibility Score: inf
ROOT
ATOM      1  C   UNL     1      15.491  15.689   6.678  1.00  0.00    -0.015 A 
ATOM      2  C   UNL     1      14.695  14.620   7.111  1.00  0.00     0.010 A 
ATOM      3  C   UNL     1      13.914  14.750   8.265  1.00  0.00     0.047 A 
ATOM      4  C   UNL     1      13.969  15.944   9.005  1.00  0.00     0.132 A 
ATOM      5  N   UNL     1      14.733  16.974   8.547  1.00  0.00    -0.239 NA
ATOM      6  C   UNL     1      15.486  16.876   7.421  1.00  0.00     0.118 A 
ENDROOT
BRANCH   1   7
ATOM      7  C   UNL     1      16.455  15.517   5.541  1.00  0.00     0.121 C 
BRANCH   7   8
ATOM      8  N   UNL     1      15.958  14.427   4.674  1.00  0.00    -0.296 NA
ATOM      9  N   UNL     1      16.458  13.073   2.073  1.00  0.00    -0.301 NA
ATOM     10  C   UNL     1      16.205  14.536   2.183  1.00  0.00     0.100 C 
ATOM     11  C   UNL     1      16.478  12.386   3.393  1.00  0.00     0.100 C 
ATOM     12  C   UNL     1      15.337  14.884   3.405  1.00  0.00     0.100 C 
ATOM     13  C   UNL     1      16.932  13.330   4.510  1.00  0.00     0.100 C 
BRANCH   9  14
ATOM     14  C   UNL     1      15.496  12.434   1.148  1.00  0.00     0.081 C 
ATOM     15  C   UNL     1      14.740  11.286   1.821  1.00  0.00     0.021 C 
ENDBRANCH   9  14
ENDBRANCH   7   8
ENDBRANCH   1   7
BRANCH   4  16
ATOM     16  N   UNL     1      13.211  16.132  10.210  1.00  0.00    -0.309 N 
ATOM     17  H   UNL     1      13.721  16.534  11.033  1.00  0.00     0.171 HD
BRANCH  16  18
ATOM     18  C   UNL     1      11.910  15.582  10.461  1.00  0.00     0.229 A 
ATOM     19  N   UNL     1      10.953  15.555   9.494  1.00  0.00    -0.218 NA
ATOM     20  N   UNL     1      11.640  15.052  11.683  1.00  0.00    -0.210 NA
ATOM     21  C   UNL     1       9.725  15.032   9.737  1.00  0.00     0.156 A 
ATOM     22  C   UNL     1      10.430  14.501  11.979  1.00  0.00     0.112 A 
ATOM     23  C   UNL     1       9.426  14.501  10.991  1.00  0.00     0.167 A 
ATOM     24  F   UNL     1       8.169  14.062  11.241  1.00  0.00    -0.203 F 
BRANCH  22  25
ATOM     25  C   UNL     1      10.211  13.956  13.344  1.00  0.00     0.008 A 
ATOM     26  C   UNL     1       9.126  14.445  14.121  1.00  0.00     0.052 A 
ATOM     27  C   UNL     1      11.086  12.991  13.907  1.00  0.00     0.039 A 
ATOM     28  C   UNL     1       8.895  13.965  15.421  1.00  0.00     0.151 A 
ATOM     29  C   UNL     1      10.826  12.539  15.208  1.00  0.00     0.072 A 
ATOM     30  F   UNL     1       7.849  14.416  16.157  1.00  0.00    -0.205 F 
ATOM     31  C   UNL     1       9.765  13.006  15.925  1.00  0.00     0.124 A 
ATOM     32  N   UNL     1      11.476  11.602  15.933  1.00  0.00    -0.326 N 
ATOM     33  N   UNL     1       9.682  12.381  17.109  1.00  0.00    -0.230 NA
ATOM     34  C   UNL     1      10.730  11.520  17.080  1.00  0.00     0.107 A 
ATOM     35  C   UNL     1      10.980  10.569  18.212  1.00  0.00     0.088 C 
BRANCH  32  36
ATOM     36  C   UNL     1      12.609  10.773  15.472  1.00  0.00     0.083 C 
ATOM     37  C   UNL     1      13.794  10.785  16.447  1.00  0.00     0.031 C 
ATOM     38  C   UNL     1      12.136   9.350  15.173  1.00  0.00     0.031 C 
ENDBRANCH  32  36
ENDBRANCH  22  25
ENDBRANCH  16  18
ENDBRANCH   4  16
TORSDOF 7
ENDMDL
MODEL 12
REMARK VINA RESULT:    -8.544      4.424      8.206
REMARK INTER + INTRA:         -13.115
REMARK INTER:                 -12.304
REMARK INTRA:                  -0.811
REMARK UNBOUND:                -1.074
REMARK SMILES CCN1CCN(Cc2ccc(Nc3ncc(F)c(-c4cc(F)c5nc(C)n(C(C)C)c5c4)n3)nc2)CC1
REMARK SMILES IDX 8 1 9 2 10 3 11 4 34 5 35 6 7 7 6 8 3 9 4 10 37 11 5 12
REMARK SMILES IDX 36 13 2 14 1 15 12 16 13 18 14 19 33 20 15 21 18 22 16 23
REMARK SMILES IDX 17 24 19 25 20 26 32 27 21 28 31 29 22 30 23 31 27 32 24 33
REMARK SMILES IDX 25 34 26 35 28 36 29 37 30 38
REMARK H PARENT 12 17
REMARK Flexibility Score: inf
ROOT
ATOM      1  C   UNL     1      12.717  14.998   8.484  1.00  0.00    -0.015 A 
ATOM      2  C   UNL     1      13.576  14.405   9.418  1.00  0.00     0.010 A 
ATOM      3  C   UNL     1      13.059  13.567  10.413  1.00  0.00     0.047 A 
ATOM      4  C   UNL     1      11.670  13.362  10.489  1.00  0.00     0.132 A 
ATOM      5  N   UNL     1      10.862  13.932   9.553  1.00  0.00    -0.239 NA
ATOM      6  C   UNL     1      11.344  14.735   8.569  1.00  0.00     0.118 A 
ENDROOT
BRANCH   1   7
ATOM      7  C   UNL     1      13.227  16.023   7.513  1.00  0.00     0.121 C 
BRANCH   7   8
ATOM      8  N   UNL     1      14.513  15.540   6.965  1.00  0.00    -0.296 NA
ATOM      9  N   UNL     1      16.152  15.509   4.482  1.00  0.00    -0.301 NA
ATOM     10  C   UNL     1      14.760  14.982   4.535  1.00  0.00     0.100 C 
ATOM     11  C   UNL     1      16.604  16.084   5.777  1.00  0.00     0.100 C 
ATOM     12  C   UNL     1      14.385  14.475   5.939  1.00  0.00     0.100 C 
ATOM     13  C   UNL     1      15.427  16.637   6.588  1.00  0.00     0.100 C 
BRANCH   9  14
ATOM     14  C   UNL     1      17.093  14.477   3.993  1.00  0.00     0.081 C 
ATOM     15  C   UNL     1      16.574  13.791   2.728  1.00  0.00     0.021 C 
ENDBRANCH   9  14
ENDBRANCH   7   8
ENDBRANCH   1   7
BRANCH   4  16
ATOM     16  N   UNL     1      11.074  12.533  11.500  1.00  0.00    -0.309 N 
ATOM     17  H   UNL     1      10.550  11.688  11.171  1.00  0.00     0.171 HD
BRANCH  16  18
ATOM     18  C   UNL     1      10.912  12.901  12.877  1.00  0.00     0.229 A 
ATOM     19  N   UNL     1      10.024  13.860  13.255  1.00  0.00    -0.218 NA
ATOM     20  N   UNL     1      11.641  12.255  13.824  1.00  0.00    -0.210 NA
ATOM     21  C   UNL     1       9.874  14.201  14.560  1.00  0.00     0.156 A 
ATOM     22  C   UNL     1      11.522  12.546  15.150  1.00  0.00     0.112 A 
ATOM     23  C   UNL     1      10.628  13.561  15.542  1.00  0.00     0.167 A 
ATOM     24  F   UNL     1      10.528  13.975  16.827  1.00  0.00    -0.203 F 
BRANCH  22  25
ATOM     25  C   UNL     1      12.368  11.803  16.120  1.00  0.00     0.008 A 
ATOM     26  C   UNL     1      13.640  12.328  16.476  1.00  0.00     0.052 A 
ATOM     27  C   UNL     1      11.955  10.560  16.666  1.00  0.00     0.039 A 
ATOM     28  C   UNL     1      14.474  11.648  17.379  1.00  0.00     0.151 A 
ATOM     29  C   UNL     1      12.816   9.910  17.560  1.00  0.00     0.072 A 
ATOM     30  F   UNL     1      15.679  12.157  17.736  1.00  0.00    -0.205 F 
ATOM     31  C   UNL     1      14.020  10.444  17.905  1.00  0.00     0.124 A 
ATOM     32  N   UNL     1      12.629   8.756  18.239  1.00  0.00    -0.326 N 
ATOM     33  N   UNL     1      14.634   9.679  18.820  1.00  0.00    -0.230 NA
ATOM     34  C   UNL     1      13.755   8.664  19.016  1.00  0.00     0.107 A 
ATOM     35  C   UNL     1      14.029   7.589  20.023  1.00  0.00     0.088 C 
BRANCH  32  36
ATOM     36  C   UNL     1      11.404   7.931  18.237  1.00  0.00     0.083 C 
ATOM     37  C   UNL     1      10.120   8.768  18.306  1.00  0.00     0.031 C 
ATOM     38  C   UNL     1      11.401   6.989  17.033  1.00  0.00     0.031 C 
ENDBRANCH  32  36
ENDBRANCH  22  25
ENDBRANCH  16  18
ENDBRANCH   4  16
TORSDOF 7
ENDMDL
MODEL 13
REMARK VINA RESULT:    -8.519      5.331     10.141
REMARK INTER + INTRA:         -13.080
REMARK INTER:                 -12.446
REMARK INTRA:                  -0.633
REMARK UNBOUND:                -1.074
REMARK SMILES CCN1CCN(Cc2ccc(Nc3ncc(F)c(-c4cc(F)c5nc(C)n(C(C)C)c5c4)n3)nc2)CC1
REMARK SMILES IDX 8 1 9 2 10 3 11 4 34 5 35 6 7 7 6 8 3 9 4 10 37 11 5 12
REMARK SMILES IDX 36 13 2 14 1 15 12 16 13 18 14 19 33 20 15 21 18 22 16 23
REMARK SMILES IDX 17 24 19 25 20 26 32 27 21 28 31 29 22 30 23 31 27 32 24 33
REMARK SMILES IDX 25 34 26 35 28 36 29 37 30 38
REMARK H PARENT 12 17
REMARK Flexibility Score: inf
ROOT
ATOM      1  C   UNL     1      11.496  13.571  15.055  1.00  0.00    -0.015 A 
ATOM      2  C   UNL     1      10.608  12.979  14.148  1.00  0.00     0.010 A 
ATOM      3  C   UNL     1      11.000  12.761  12.823  1.00  0.00     0.047 A 
ATOM      4  C   UNL     1      12.275  13.179  12.403  1.00  0.00     0.132 A 
ATOM      5  N   UNL     1      13.126  13.730  13.312  1.00  0.00    -0.239 NA
ATOM      6  C   UNL     1      12.773  13.936  14.607  1.00  0.00     0.118 A 
ENDROOT
BRANCH   1   7
ATOM      7  C   UNL     1      11.044  13.960  16.432  1.00  0.00     0.121 C 
BRANCH   7   8
ATOM      8  N   UNL     1      10.447  12.769  17.076  1.00  0.00    -0.296 NA
ATOM      9  N   UNL     1       9.922  11.544  19.735  1.00  0.00    -0.301 NA
ATOM     10  C   UNL     1      11.287  11.929  19.281  1.00  0.00     0.100 C 
ATOM     11  C   UNL     1       8.865  11.879  18.744  1.00  0.00     0.100 C 
ATOM     12  C   UNL     1      11.425  11.878  17.750  1.00  0.00     0.100 C 
ATOM     13  C   UNL     1       9.258  13.089  17.891  1.00  0.00     0.100 C 
BRANCH   9  14
ATOM     14  C   UNL     1       9.871  10.115  20.115  1.00  0.00     0.081 C 
ATOM     15  C   UNL     1       8.432   9.635  20.318  1.00  0.00     0.021 C 
ENDBRANCH   9  14
ENDBRANCH   7   8
ENDBRANCH   1   7
BRANCH   4  16
ATOM     16  N   UNL     1      12.730  13.007  11.051  1.00  0.00    -0.309 N 
ATOM     17  H   UNL     1      13.374  12.202  10.867  1.00  0.00     0.171 HD
BRANCH  16  18
ATOM     18  C   UNL     1      12.592  13.979  10.005  1.00  0.00     0.229 A 
ATOM     19  N   UNL     1      11.504  14.793   9.931  1.00  0.00    -0.218 NA
ATOM     20  N   UNL     1      13.585  14.106   9.086  1.00  0.00    -0.210 NA
ATOM     21  C   UNL     1      11.381  15.711   8.940  1.00  0.00     0.156 A 
ATOM     22  C   UNL     1      13.522  15.020   8.077  1.00  0.00     0.112 A 
ATOM     23  C   UNL     1      12.383  15.842   7.979  1.00  0.00     0.167 A 
ATOM     24  F   UNL     1      12.202  16.702   6.949  1.00  0.00    -0.203 F 
BRANCH  22  25
ATOM     25  C   UNL     1      14.644  15.085   7.105  1.00  0.00     0.008 A 
ATOM     26  C   UNL     1      15.397  16.286   6.993  1.00  0.00     0.052 A 
ATOM     27  C   UNL     1      14.954  13.992   6.255  1.00  0.00     0.039 A 
ATOM     28  C   UNL     1      16.455  16.391   6.076  1.00  0.00     0.151 A 
ATOM     29  C   UNL     1      16.015  14.136   5.350  1.00  0.00     0.072 A 
ATOM     30  F   UNL     1      17.188  17.528   5.981  1.00  0.00    -0.205 F 
ATOM     31  C   UNL     1      16.738  15.289   5.278  1.00  0.00     0.124 A 
ATOM     32  N   UNL     1      16.526  13.234   4.483  1.00  0.00    -0.326 N 
ATOM     33  N   UNL     1      17.737  15.166   4.392  1.00  0.00    -0.230 NA
ATOM     34  C   UNL     1      17.593  13.897   3.934  1.00  0.00     0.107 A 
ATOM     35  C   UNL     1      18.558  13.319   2.943  1.00  0.00     0.088 C 
BRANCH  32  36
ATOM     36  C   UNL     1      16.103  11.826   4.338  1.00  0.00     0.083 C 
ATOM     37  C   UNL     1      15.630  11.206   5.660  1.00  0.00     0.031 C 
ATOM     38  C   UNL     1      15.044  11.700   3.243  1.00  0.00     0.031 C 
ENDBRANCH  32  36
ENDBRANCH  22  25
ENDBRANCH  16  18
ENDBRANCH   4  16
TORSDOF 7
ENDMDL
MODEL 14
REMARK VINA RESULT:    -8.432      2.421      5.624
REMARK INTER + INTRA:         -12.957
REMARK INTER:                 -12.053
REMARK INTRA:                  -0.904
REMARK UNBOUND:                -1.074
REMARK SMILES CCN1CCN(Cc2ccc(Nc3ncc(F)c(-c4cc(F)c5nc(C)n(C(C)C)c5c4)n3)nc2)CC1
REMARK SMILES IDX 8 1 9 2 10 3 11 4 34 5 35 6 7 7 6 8 3 9 4 10 37 11 5 12
REMARK SMILES IDX 36 13 2 14 1 15 12 16 13 18 14 19 33 20 15 21 18 22 16 23
REMARK SMILES IDX 17 24 19 25 20 26 32 27 21 28 31 29 22 30 23 31 27 32 24 33
REMARK SMILES IDX 25 34 26 35 28 36 29 37 30 38
REMARK H PARENT 12 17
REMARK Flexibility Score: inf
ROOT
ATOM      1  C   UNL     1      16.297  12.957  19.161  1.00  0.00    -0.015 A 
ATOM      2  C   UNL     1      16.154  12.244  17.963  1.00  0.00     0.010 A 
ATOM      3  C   UNL     1      15.223  11.204  17.872  1.00  0.00     0.047 A 
ATOM      4  C   UNL     1      14.465  10.856  19.004  1.00  0.00     0.132 A 
ATOM      5  N   UNL     1      14.607  11.582  20.147  1.00  0.00    -0.239 NA
ATOM      6  C   UNL     1      15.492  12.606  20.253  1.00  0.00     0.118 A 
ENDROOT
BRANCH   1   7
ATOM      7  C   UNL     1      17.396  13.964  19.330  1.00  0.00     0.121 C 
BRANCH   7   8
ATOM      8  N   UNL     1      18.508  13.590  18.429  1.00  0.00    -0.296 NA
ATOM      9  N   UNL     1      21.431  13.958  18.018  1.00  0.00    -0.301 NA
ATOM     10  C   UNL     1      20.481  15.100  18.107  1.00  0.00     0.100 C 
ATOM     11  C   UNL     1      20.770  12.638  18.202  1.00  0.00     0.100 C 
ATOM     12  C   UNL     1      19.066  14.716  17.639  1.00  0.00     0.100 C 
ATOM     13  C   UNL     1      19.527  12.751  19.090  1.00  0.00     0.100 C 
BRANCH   9  14
ATOM     14  C   UNL     1      22.202  14.003  16.756  1.00  0.00     0.081 C 
ATOM     15  C   UNL     1      22.904  12.673  16.473  1.00  0.00     0.021 C 
ENDBRANCH   9  14
ENDBRANCH   7   8
ENDBRANCH   1   7
BRANCH   4  16
ATOM     16  N   UNL     1      13.510   9.783  18.984  1.00  0.00    -0.309 N 
ATOM     17  H   UNL     1      13.891   8.809  19.044  1.00  0.00     0.171 HD
BRANCH  16  18
ATOM     18  C   UNL     1      12.126   9.917  18.629  1.00  0.00     0.229 A 
ATOM     19  N   UNL     1      11.172   9.115  19.176  1.00  0.00    -0.218 NA
ATOM     20  N   UNL     1      11.759  10.886  17.749  1.00  0.00    -0.210 NA
ATOM     21  C   UNL     1       9.866   9.248  18.837  1.00  0.00     0.156 A 
ATOM     22  C   UNL     1      10.461  11.075  17.383  1.00  0.00     0.112 A 
ATOM     23  C   UNL     1       9.476  10.225  17.922  1.00  0.00     0.167 A 
ATOM     24  F   UNL     1       8.181  10.285  17.531  1.00  0.00    -0.203 F 
BRANCH  22  25
ATOM     25  C   UNL     1      10.147  12.148  16.404  1.00  0.00     0.008 A 
ATOM     26  C   UNL     1       8.989  12.949  16.601  1.00  0.00     0.052 A 
ATOM     27  C   UNL     1      10.951  12.363  15.255  1.00  0.00     0.039 A 
ATOM     28  C   UNL     1       8.651  13.963  15.690  1.00  0.00     0.151 A 
ATOM     29  C   UNL     1      10.579  13.382  14.367  1.00  0.00     0.072 A 
ATOM     30  F   UNL     1       7.558  14.742  15.885  1.00  0.00    -0.205 F 
ATOM     31  C   UNL     1       9.478  14.153  14.589  1.00  0.00     0.124 A 
ATOM     32  N   UNL     1      11.201  13.806  13.244  1.00  0.00    -0.326 N 
ATOM     33  N   UNL     1       9.364  15.100  13.646  1.00  0.00    -0.230 NA
ATOM     34  C   UNL     1      10.438  14.873  12.847  1.00  0.00     0.107 A 
ATOM     35  C   UNL     1      10.728  15.758  11.673  1.00  0.00     0.088 C 
BRANCH  32  36
ATOM     36  C   UNL     1      12.492  13.311  12.722  1.00  0.00     0.083 C 
ATOM     37  C   UNL     1      12.414  12.878  11.252  1.00  0.00     0.031 C 
ATOM     38  C   UNL     1      13.589  14.351  12.949  1.00  0.00     0.031 C 
ENDBRANCH  32  36
ENDBRANCH  22  25
ENDBRANCH  16  18
ENDBRANCH   4  16
TORSDOF 7
ENDMDL
MODEL 15
REMARK VINA RESULT:    -8.361      2.462      6.213
REMARK INTER + INTRA:         -12.857
REMARK INTER:                 -11.607
REMARK INTRA:                  -1.251
REMARK UNBOUND:                -1.074
REMARK SMILES CCN1CCN(Cc2ccc(Nc3ncc(F)c(-c4cc(F)c5nc(C)n(C(C)C)c5c4)n3)nc2)CC1
REMARK SMILES IDX 8 1 9 2 10 3 11 4 34 5 35 6 7 7 6 8 3 9 4 10 37 11 5 12
REMARK SMILES IDX 36 13 2 14 1 15 12 16 13 18 14 19 33 20 15 21 18 22 16 23
REMARK SMILES IDX 17 24 19 25 20 26 32 27 21 28 31 29 22 30 23 31 27 32 24 33
REMARK SMILES IDX 25 34 26 35 28 36 29 37 30 38
REMARK H PARENT 12 17
REMARK Flexibility Score: inf
ROOT
ATOM      1  C   UNL     1      15.959  12.687  18.964  1.00  0.00    -0.015 A 
ATOM      2  C   UNL     1      15.773  11.711  17.975  1.00  0.00     0.010 A 
ATOM      3  C   UNL     1      14.739  10.777  18.097  1.00  0.00     0.047 A 
ATOM      4  C   UNL     1      13.917  10.802  19.238  1.00  0.00     0.132 A 
ATOM      5  N   UNL     1      14.106  11.776  20.171  1.00  0.00    -0.239 NA
ATOM      6  C   UNL     1      15.093  12.703  20.065  1.00  0.00     0.118 A 
ENDROOT
BRANCH   1   7
ATOM      7  C   UNL     1      17.155  13.593  18.935  1.00  0.00     0.121 C 
BRANCH   7   8
ATOM      8  N   UNL     1      17.229  14.217  17.596  1.00  0.00    -0.296 NA
ATOM      9  N   UNL     1      17.586  16.839  16.238  1.00  0.00    -0.301 NA
ATOM     10  C   UNL     1      16.503  16.586  17.228  1.00  0.00     0.100 C 
ATOM     11  C   UNL     1      18.481  15.667  16.044  1.00  0.00     0.100 C 
ATOM     12  C   UNL     1      16.087  15.105  17.266  1.00  0.00     0.100 C 
ATOM     13  C   UNL     1      18.554  14.802  17.306  1.00  0.00     0.100 C 
BRANCH   9  14
ATOM     14  C   UNL     1      17.030  17.311  14.950  1.00  0.00     0.081 C 
ATOM     15  C   UNL     1      17.089  16.223  13.876  1.00  0.00     0.021 C 
ENDBRANCH   9  14
ENDBRANCH   7   8
ENDBRANCH   1   7
BRANCH   4  16
ATOM     16  N   UNL     1      12.854   9.857  19.435  1.00  0.00    -0.309 N 
ATOM     17  H   UNL     1      13.126   8.899  19.760  1.00  0.00     0.171 HD
BRANCH  16  18
ATOM     18  C   UNL     1      11.504  10.028  18.981  1.00  0.00     0.229 A 
ATOM     19  N   UNL     1      10.488   9.267  19.472  1.00  0.00    -0.218 NA
ATOM     20  N   UNL     1      11.232  10.991  18.062  1.00  0.00    -0.210 NA
ATOM     21  C   UNL     1       9.214   9.435  19.039  1.00  0.00     0.156 A 
ATOM     22  C   UNL     1       9.969  11.214  17.602  1.00  0.00     0.112 A 
ATOM     23  C   UNL     1       8.921  10.406  18.083  1.00  0.00     0.167 A 
ATOM     24  F   UNL     1       7.659  10.501  17.600  1.00  0.00    -0.203 F 
BRANCH  22  25
ATOM     25  C   UNL     1       9.760  12.278  16.585  1.00  0.00     0.008 A 
ATOM     26  C   UNL     1       8.607  13.105  16.674  1.00  0.00     0.052 A 
ATOM     27  C   UNL     1      10.661  12.460  15.504  1.00  0.00     0.039 A 
ATOM     28  C   UNL     1       8.367  14.112  15.725  1.00  0.00     0.151 A 
ATOM     29  C   UNL     1      10.386  13.472  14.575  1.00  0.00     0.072 A 
ATOM     30  F   UNL     1       7.279  14.916  15.818  1.00  0.00    -0.205 F 
ATOM     31  C   UNL     1       9.286  14.268  14.694  1.00  0.00     0.124 A 
ATOM     32  N   UNL     1      11.107  13.866  13.502  1.00  0.00    -0.326 N 
ATOM     33  N   UNL     1       9.272  15.202  13.731  1.00  0.00    -0.230 NA
ATOM     34  C   UNL     1      10.403  14.942  13.028  1.00  0.00     0.107 A 
ATOM     35  C   UNL     1      10.808  15.803  11.870  1.00  0.00     0.088 C 
BRANCH  32  36
ATOM     36  C   UNL     1      12.426  13.337  13.095  1.00  0.00     0.083 C 
ATOM     37  C   UNL     1      12.441  12.816  11.652  1.00  0.00     0.031 C 
ATOM     38  C   UNL     1      13.513  14.386  13.330  1.00  0.00     0.031 C 
ENDBRANCH  32  36
ENDBRANCH  22  25
ENDBRANCH  16  18
ENDBRANCH   4  16
TORSDOF 7
ENDMDL
