MODEL 1
REMARK VINA RESULT:    -9.695      0.000      0.000
REMARK INTER + INTRA:         -13.537
REMARK INTER:                 -12.529
REMARK INTRA:                  -1.008
REMARK UNBOUND:                -1.008
REMARK SMILES CCn1c(=O)c(-c2cc(NC(=O)Nc3ccccc3)c(F)cc2Br)cc2cnc(NC)cc21
REMARK SMILES IDX 7 1 23 2 24 3 22 4 20 5 21 6 9 7 8 8 6 9 3 10 4 11 33 12
REMARK SMILES IDX 5 13 26 14 32 15 25 16 27 17 29 18 28 19 2 20 1 21 30 22
REMARK SMILES IDX 31 23 10 25 11 26 12 28 13 29 14 31 15 32 19 33 16 34 18 35
REMARK SMILES IDX 17 36
REMARK H PARENT 30 24 10 27 13 30
REMARK Flexibility Score: inf
ROOT
ATOM      1  C   UNL     1      20.034  34.199  12.807  1.00  0.00     0.004 A 
ATOM      2  C   UNL     1      19.139  34.399  13.876  1.00  0.00     0.029 A 
ATOM      3  Br  UNL     1      19.748  34.878  15.632  1.00  0.00    -0.050 Br
ATOM      4  C   UNL     1      17.761  34.299  13.657  1.00  0.00     0.057 A 
ATOM      5  C   UNL     1      17.265  33.996  12.387  1.00  0.00     0.147 A 
ATOM      6  F   UNL     1      15.921  33.969  12.195  1.00  0.00    -0.205 F 
ATOM      7  C   UNL     1      18.150  33.779  11.316  1.00  0.00     0.079 A 
ATOM      8  C   UNL     1      19.530  33.908  11.529  1.00  0.00     0.039 A 
ENDROOT
BRANCH   1   9
ATOM      9  C   UNL     1      21.497  34.302  12.997  1.00  0.00     0.049 A 
ATOM     10  N   UNL     1      23.638  33.283  13.492  1.00  0.00    -0.308 N 
ATOM     11  C   UNL     1      22.273  33.177  13.321  1.00  0.00     0.258 A 
ATOM     12  C   UNL     1      24.255  34.520  13.393  1.00  0.00     0.056 A 
ATOM     13  O   UNL     1      21.697  32.060  13.449  1.00  0.00    -0.269 OA
ATOM     14  C   UNL     1      23.491  35.658  13.038  1.00  0.00     0.018 A 
ATOM     15  C   UNL     1      25.637  34.707  13.642  1.00  0.00     0.073 A 
ATOM     16  C   UNL     1      22.120  35.535  12.830  1.00  0.00     0.026 A 
ATOM     17  C   UNL     1      24.113  36.907  12.912  1.00  0.00     0.123 A 
ATOM     18  C   UNL     1      26.218  35.980  13.508  1.00  0.00     0.127 A 
ATOM     19  N   UNL     1      25.442  37.035  13.145  1.00  0.00    -0.239 NA
BRANCH  10  20
ATOM     20  C   UNL     1      24.402  32.053  13.811  1.00  0.00     0.122 C 
ATOM     21  C   UNL     1      25.010  31.453  12.546  1.00  0.00     0.028 C 
ENDBRANCH  10  20
BRANCH  18  22
ATOM     22  N   UNL     1      27.618  36.207  13.749  1.00  0.00    -0.373 N 
ATOM     23  C   UNL     1      28.548  35.168  14.179  1.00  0.00     0.141 C 
ATOM     24  H   UNL     1      27.993  37.172  13.608  1.00  0.00     0.161 HD
ENDBRANCH  18  22
ENDBRANCH   1   9
BRANCH   7  25
ATOM     25  N   UNL     1      17.669  33.485   9.994  1.00  0.00    -0.305 N 
ATOM     26  C   UNL     1      17.648  32.164   9.436  1.00  0.00     0.323 C 
ATOM     27  H   UNL     1      17.458  34.286   9.357  1.00  0.00     0.171 HD
ATOM     28  O   UNL     1      18.195  31.208  10.049  1.00  0.00    -0.248 OA
ATOM     29  N   UNL     1      16.996  31.941   8.176  1.00  0.00    -0.308 N 
ATOM     30  H   UNL     1      16.338  32.679   7.837  1.00  0.00     0.171 HD
BRANCH  29  31
ATOM     31  C   UNL     1      17.091  30.722   7.421  1.00  0.00     0.042 A 
ATOM     32  C   UNL     1      18.264  30.449   6.699  1.00  0.00     0.026 A 
ATOM     33  C   UNL     1      16.059  29.764   7.436  1.00  0.00     0.026 A 
ATOM     34  C   UNL     1      18.389  29.259   5.974  1.00  0.00     0.002 A 
ATOM     35  C   UNL     1      16.188  28.576   6.711  1.00  0.00     0.002 A 
ATOM     36  C   UNL     1      17.350  28.325   5.977  1.00  0.00     0.000 A 
ENDBRANCH  29  31
ENDBRANCH   7  25
TORSDOF 5
ENDMDL
MODEL 2
REMARK VINA RESULT:    -9.547      1.052      1.053
REMARK INTER + INTRA:         -13.346
REMARK INTER:                 -13.206
REMARK INTRA:                  -0.139
REMARK UNBOUND:                -1.008
REMARK SMILES CCn1c(=O)c(-c2cc(NC(=O)Nc3ccccc3)c(F)cc2Br)cc2cnc(NC)cc21
REMARK SMILES IDX 7 1 23 2 24 3 22 4 20 5 21 6 9 7 8 8 6 9 3 10 4 11 33 12
REMARK SMILES IDX 5 13 26 14 32 15 25 16 27 17 29 18 28 19 2 20 1 21 30 22
REMARK SMILES IDX 31 23 10 25 11 26 12 28 13 29 14 31 15 32 19 33 16 34 18 35
REMARK SMILES IDX 17 36
REMARK H PARENT 30 24 10 27 13 30
REMARK Flexibility Score: inf
ROOT
ATOM      1  C   UNL     1      19.505  34.114  13.130  1.00  0.00     0.004 A 
ATOM      2  C   UNL     1      18.555  34.190  14.166  1.00  0.00     0.029 A 
ATOM      3  Br  UNL     1      19.051  34.626  15.968  1.00  0.00    -0.050 Br
ATOM      4  C   UNL     1      17.199  33.996  13.881  1.00  0.00     0.057 A 
ATOM      5  C   UNL     1      16.780  33.720  12.577  1.00  0.00     0.147 A 
ATOM      6  F   UNL     1      15.452  33.600  12.324  1.00  0.00    -0.205 F 
ATOM      7  C   UNL     1      17.723  33.626  11.538  1.00  0.00     0.079 A 
ATOM      8  C   UNL     1      19.078  33.848  11.819  1.00  0.00     0.039 A 
ENDROOT
BRANCH   1   9
ATOM      9  C   UNL     1      20.947  34.319  13.390  1.00  0.00     0.049 A 
ATOM     10  N   UNL     1      23.248  33.580  13.220  1.00  0.00    -0.308 N 
ATOM     11  C   UNL     1      21.905  33.378  12.977  1.00  0.00     0.258 A 
ATOM     12  C   UNL     1      23.663  34.700  13.923  1.00  0.00     0.056 A 
ATOM     13  O   UNL     1      21.515  32.340  12.371  1.00  0.00    -0.269 OA
ATOM     14  C   UNL     1      22.713  35.671  14.321  1.00  0.00     0.018 A 
ATOM     15  C   UNL     1      25.017  34.921  14.279  1.00  0.00     0.073 A 
ATOM     16  C   UNL     1      21.364  35.477  14.038  1.00  0.00     0.026 A 
ATOM     17  C   UNL     1      23.130  36.817  15.010  1.00  0.00     0.123 A 
ATOM     18  C   UNL     1      25.390  36.083  14.977  1.00  0.00     0.127 A 
ATOM     19  N   UNL     1      24.438  36.993  15.315  1.00  0.00    -0.239 NA
BRANCH  10  20
ATOM     20  C   UNL     1      24.210  32.561  12.738  1.00  0.00     0.122 C 
ATOM     21  C   UNL     1      24.775  32.955  11.376  1.00  0.00     0.028 C 
ENDBRANCH  10  20
BRANCH  18  22
ATOM     22  N   UNL     1      26.753  36.342  15.351  1.00  0.00    -0.373 N 
ATOM     23  C   UNL     1      27.897  36.100  14.477  1.00  0.00     0.141 C 
ATOM     24  H   UNL     1      26.940  36.727  16.305  1.00  0.00     0.161 HD
ENDBRANCH  18  22
ENDBRANCH   1   9
BRANCH   7  25
ATOM     25  N   UNL     1      17.321  33.362  10.184  1.00  0.00    -0.305 N 
ATOM     26  C   UNL     1      17.515  32.099   9.533  1.00  0.00     0.323 C 
ATOM     27  H   UNL     1      17.003  34.168   9.599  1.00  0.00     0.171 HD
ATOM     28  O   UNL     1      18.190  31.193  10.094  1.00  0.00    -0.248 OA
ATOM     29  N   UNL     1      16.932  31.875   8.240  1.00  0.00    -0.308 N 
ATOM     30  H   UNL     1      16.176  32.528   7.933  1.00  0.00     0.171 HD
BRANCH  29  31
ATOM     31  C   UNL     1      17.230  30.744   7.404  1.00  0.00     0.042 A 
ATOM     32  C   UNL     1      18.426  30.727   6.669  1.00  0.00     0.026 A 
ATOM     33  C   UNL     1      16.378  29.624   7.351  1.00  0.00     0.026 A 
ATOM     34  C   UNL     1      18.748  29.629   5.865  1.00  0.00     0.002 A 
ATOM     35  C   UNL     1      16.704  28.528   6.546  1.00  0.00     0.002 A 
ATOM     36  C   UNL     1      17.885  28.532   5.800  1.00  0.00     0.000 A 
ENDBRANCH  29  31
ENDBRANCH   7  25
TORSDOF 5
ENDMDL
MODEL 3
REMARK VINA RESULT:    -9.490      1.779      2.793
REMARK INTER + INTRA:         -13.271
REMARK INTER:                 -12.424
REMARK INTRA:                  -0.848
REMARK UNBOUND:                -1.008
REMARK SMILES CCn1c(=O)c(-c2cc(NC(=O)Nc3ccccc3)c(F)cc2Br)cc2cnc(NC)cc21
REMARK SMILES IDX 7 1 23 2 24 3 22 4 20 5 21 6 9 7 8 8 6 9 3 10 4 11 33 12
REMARK SMILES IDX 5 13 26 14 32 15 25 16 27 17 29 18 28 19 2 20 1 21 30 22
REMARK SMILES IDX 31 23 10 25 11 26 12 28 13 29 14 31 15 32 19 33 16 34 18 35
REMARK SMILES IDX 17 36
REMARK H PARENT 30 24 10 27 13 30
REMARK Flexibility Score: inf
ROOT
ATOM      1  C   UNL     1      20.761  33.991  13.029  1.00  0.00     0.004 A 
ATOM      2  C   UNL     1      20.104  34.206  14.255  1.00  0.00     0.029 A 
ATOM      3  Br  UNL     1      21.068  34.408  15.902  1.00  0.00    -0.050 Br
ATOM      4  C   UNL     1      18.710  34.328  14.283  1.00  0.00     0.057 A 
ATOM      5  C   UNL     1      17.965  34.233  13.106  1.00  0.00     0.147 A 
ATOM      6  F   UNL     1      16.622  34.419  13.160  1.00  0.00    -0.205 F 
ATOM      7  C   UNL     1      18.611  34.004  11.879  1.00  0.00     0.079 A 
ATOM      8  C   UNL     1      20.010  33.909  11.846  1.00  0.00     0.039 A 
ENDROOT
BRANCH   1   9
ATOM      9  C   UNL     1      22.234  33.863  12.956  1.00  0.00     0.049 A 
ATOM     10  N   UNL     1      24.440  34.861  12.927  1.00  0.00    -0.308 N 
ATOM     11  C   UNL     1      23.068  34.992  12.991  1.00  0.00     0.258 A 
ATOM     12  C   UNL     1      25.010  33.607  12.777  1.00  0.00     0.056 A 
ATOM     13  O   UNL     1      22.539  36.135  13.088  1.00  0.00    -0.269 OA
ATOM     14  C   UNL     1      24.185  32.458  12.769  1.00  0.00     0.018 A 
ATOM     15  C   UNL     1      26.405  33.415  12.619  1.00  0.00     0.073 A 
ATOM     16  C   UNL     1      22.803  32.596  12.872  1.00  0.00     0.026 A 
ATOM     17  C   UNL     1      24.756  31.185  12.642  1.00  0.00     0.123 A 
ATOM     18  C   UNL     1      26.936  32.120  12.490  1.00  0.00     0.127 A 
ATOM     19  N   UNL     1      26.098  31.050  12.509  1.00  0.00    -0.239 NA
BRANCH  10  20
ATOM     20  C   UNL     1      25.266  36.091  12.992  1.00  0.00     0.122 C 
ATOM     21  C   UNL     1      25.707  36.368  14.427  1.00  0.00     0.028 C 
ENDBRANCH  10  20
BRANCH  18  22
ATOM     22  N   UNL     1      28.346  31.887  12.331  1.00  0.00    -0.373 N 
ATOM     23  C   UNL     1      28.937  30.566  12.145  1.00  0.00     0.141 C 
ATOM     24  H   UNL     1      28.988  32.712  12.349  1.00  0.00     0.161 HD
ENDBRANCH  18  22
ENDBRANCH   1   9
BRANCH   7  25
ATOM     25  N   UNL     1      17.874  33.920  10.648  1.00  0.00    -0.305 N 
ATOM     26  C   UNL     1      17.478  32.680  10.045  1.00  0.00     0.323 C 
ATOM     27  H   UNL     1      17.742  34.795  10.092  1.00  0.00     0.171 HD
ATOM     28  O   UNL     1      17.897  31.586  10.512  1.00  0.00    -0.248 OA
ATOM     29  N   UNL     1      16.602  32.696   8.908  1.00  0.00    -0.308 N 
ATOM     30  H   UNL     1      16.074  33.578   8.719  1.00  0.00     0.171 HD
BRANCH  29  31
ATOM     31  C   UNL     1      16.309  31.547   8.096  1.00  0.00     0.042 A 
ATOM     32  C   UNL     1      17.350  30.913   7.399  1.00  0.00     0.026 A 
ATOM     33  C   UNL     1      15.012  31.003   8.029  1.00  0.00     0.026 A 
ATOM     34  C   UNL     1      17.095  29.780   6.620  1.00  0.00     0.002 A 
ATOM     35  C   UNL     1      14.760  29.871   7.249  1.00  0.00     0.002 A 
ATOM     36  C   UNL     1      15.800  29.262   6.541  1.00  0.00     0.000 A 
ENDBRANCH  29  31
ENDBRANCH   7  25
TORSDOF 5
ENDMDL
MODEL 4
REMARK VINA RESULT:    -9.288      1.554      1.742
REMARK INTER + INTRA:         -13.010
REMARK INTER:                 -12.165
REMARK INTRA:                  -0.845
REMARK UNBOUND:                -1.008
REMARK SMILES CCn1c(=O)c(-c2cc(NC(=O)Nc3ccccc3)c(F)cc2Br)cc2cnc(NC)cc21
REMARK SMILES IDX 7 1 23 2 24 3 22 4 20 5 21 6 9 7 8 8 6 9 3 10 4 11 33 12
REMARK SMILES IDX 5 13 26 14 32 15 25 16 27 17 29 18 28 19 2 20 1 21 30 22
REMARK SMILES IDX 31 23 10 25 11 26 12 28 13 29 14 31 15 32 19 33 16 34 18 35
REMARK SMILES IDX 17 36
REMARK H PARENT 30 24 10 27 13 30
REMARK Flexibility Score: inf
ROOT
ATOM      1  C   UNL     1      18.974  34.264  14.200  1.00  0.00     0.004 A 
ATOM      2  C   UNL     1      18.125  34.180  15.320  1.00  0.00     0.029 A 
ATOM      3  Br  UNL     1      18.797  34.297  17.114  1.00  0.00    -0.050 Br
ATOM      4  C   UNL     1      16.743  34.058  15.136  1.00  0.00     0.057 A 
ATOM      5  C   UNL     1      16.199  34.013  13.851  1.00  0.00     0.147 A 
ATOM      6  F   UNL     1      14.850  33.958  13.709  1.00  0.00    -0.205 F 
ATOM      7  C   UNL     1      17.040  34.081  12.726  1.00  0.00     0.079 A 
ATOM      8  C   UNL     1      18.421  34.231  12.910  1.00  0.00     0.039 A 
ENDROOT
BRANCH   1   9
ATOM      9  C   UNL     1      20.439  34.400  14.352  1.00  0.00     0.049 A 
ATOM     10  N   UNL     1      22.631  33.411  14.643  1.00  0.00    -0.308 N 
ATOM     11  C   UNL     1      21.265  33.274  14.506  1.00  0.00     0.258 A 
ATOM     12  C   UNL     1      23.201  34.674  14.680  1.00  0.00     0.056 A 
ATOM     13  O   UNL     1      20.734  32.128  14.512  1.00  0.00    -0.269 OA
ATOM     14  C   UNL     1      22.385  35.817  14.497  1.00  0.00     0.018 A 
ATOM     15  C   UNL     1      24.584  34.882  14.904  1.00  0.00     0.073 A 
ATOM     16  C   UNL     1      21.012  35.668  14.321  1.00  0.00     0.026 A 
ATOM     17  C   UNL     1      22.958  37.095  14.508  1.00  0.00     0.123 A 
ATOM     18  C   UNL     1      25.116  36.184  14.912  1.00  0.00     0.127 A 
ATOM     19  N   UNL     1      24.290  37.244  14.711  1.00  0.00    -0.239 NA
BRANCH  10  20
ATOM     20  C   UNL     1      23.449  32.182  14.779  1.00  0.00     0.122 C 
ATOM     21  C   UNL     1      24.206  31.893  13.485  1.00  0.00     0.028 C 
ENDBRANCH  10  20
BRANCH  18  22
ATOM     22  N   UNL     1      26.514  36.434  15.133  1.00  0.00    -0.373 N 
ATOM     23  C   UNL     1      27.586  35.775  14.392  1.00  0.00     0.141 C 
ATOM     24  H   UNL     1      26.783  37.128  15.867  1.00  0.00     0.161 HD
ENDBRANCH  18  22
ENDBRANCH   1   9
BRANCH   7  25
ATOM     25  N   UNL     1      16.508  34.056  11.391  1.00  0.00    -0.305 N 
ATOM     26  C   UNL     1      16.573  32.907  10.535  1.00  0.00     0.323 C 
ATOM     27  H   UNL     1      16.187  34.958  10.972  1.00  0.00     0.171 HD
ATOM     28  O   UNL     1      17.241  31.894  10.881  1.00  0.00    -0.248 OA
ATOM     29  N   UNL     1      15.869  32.919   9.284  1.00  0.00    -0.308 N 
ATOM     30  H   UNL     1      15.128  33.644   9.155  1.00  0.00     0.171 HD
BRANCH  29  31
ATOM     31  C   UNL     1      16.028  31.926   8.256  1.00  0.00     0.042 A 
ATOM     32  C   UNL     1      17.238  31.856   7.548  1.00  0.00     0.026 A 
ATOM     33  C   UNL     1      15.021  30.980   7.985  1.00  0.00     0.026 A 
ATOM     34  C   UNL     1      17.425  30.885   6.558  1.00  0.00     0.002 A 
ATOM     35  C   UNL     1      15.212  30.011   6.996  1.00  0.00     0.002 A 
ATOM     36  C   UNL     1      16.411  29.965   6.280  1.00  0.00     0.000 A 
ENDBRANCH  29  31
ENDBRANCH   7  25
TORSDOF 5
ENDMDL
MODEL 5
REMARK VINA RESULT:    -8.817      3.956      4.825
REMARK INTER + INTRA:         -12.402
REMARK INTER:                 -11.916
REMARK INTRA:                  -0.486
REMARK UNBOUND:                -1.008
REMARK SMILES CCn1c(=O)c(-c2cc(NC(=O)Nc3ccccc3)c(F)cc2Br)cc2cnc(NC)cc21
REMARK SMILES IDX 7 1 23 2 24 3 22 4 20 5 21 6 9 7 8 8 6 9 3 10 4 11 33 12
REMARK SMILES IDX 5 13 26 14 32 15 25 16 27 17 29 18 28 19 2 20 1 21 30 22
REMARK SMILES IDX 31 23 10 25 11 26 12 28 13 29 14 31 15 32 19 33 16 34 18 35
REMARK SMILES IDX 17 36
REMARK H PARENT 30 24 10 27 13 30
REMARK Flexibility Score: inf
ROOT
ATOM      1  C   UNL     1      17.107  34.468  15.195  1.00  0.00     0.004 A 
ATOM      2  C   UNL     1      15.814  34.186  15.676  1.00  0.00     0.029 A 
ATOM      3  Br  UNL     1      15.406  34.184  17.551  1.00  0.00    -0.050 Br
ATOM      4  C   UNL     1      14.773  33.949  14.771  1.00  0.00     0.057 A 
ATOM      5  C   UNL     1      15.008  33.984  13.394  1.00  0.00     0.147 A 
ATOM      6  F   UNL     1      13.963  33.812  12.545  1.00  0.00    -0.205 F 
ATOM      7  C   UNL     1      16.299  34.248  12.905  1.00  0.00     0.079 A 
ATOM      8  C   UNL     1      17.335  34.514  13.810  1.00  0.00     0.039 A 
ENDROOT
BRANCH   1   9
ATOM      9  C   UNL     1      18.233  34.730  16.119  1.00  0.00     0.049 A 
ATOM     10  N   UNL     1      20.379  34.114  17.058  1.00  0.00    -0.308 N 
ATOM     11  C   UNL     1      19.332  33.859  16.197  1.00  0.00     0.258 A 
ATOM     12  C   UNL     1      20.332  35.215  17.898  1.00  0.00     0.056 A 
ATOM     13  O   UNL     1      19.348  32.835  15.457  1.00  0.00    -0.269 OA
ATOM     14  C   UNL     1      19.245  36.118  17.811  1.00  0.00     0.018 A 
ATOM     15  C   UNL     1      21.333  35.484  18.864  1.00  0.00     0.073 A 
ATOM     16  C   UNL     1      18.211  35.873  16.912  1.00  0.00     0.026 A 
ATOM     17  C   UNL     1      19.204  37.247  18.639  1.00  0.00     0.123 A 
ATOM     18  C   UNL     1      21.249  36.627  19.679  1.00  0.00     0.127 A 
ATOM     19  N   UNL     1      20.193  37.471  19.538  1.00  0.00    -0.239 NA
BRANCH  10  20
ATOM     20  C   UNL     1      21.520  33.168  17.076  1.00  0.00     0.122 C 
ATOM     21  C   UNL     1      22.483  33.464  15.930  1.00  0.00     0.028 C 
ENDBRANCH  10  20
BRANCH  18  22
ATOM     22  N   UNL     1      22.247  36.933  20.667  1.00  0.00    -0.373 N 
ATOM     23  C   UNL     1      22.072  37.927  21.721  1.00  0.00     0.141 C 
ATOM     24  H   UNL     1      23.153  36.413  20.631  1.00  0.00     0.161 HD
ENDBRANCH  18  22
ENDBRANCH   1   9
BRANCH   7  25
ATOM     25  N   UNL     1      16.567  34.309  11.494  1.00  0.00    -0.305 N 
ATOM     26  C   UNL     1      16.505  33.167  10.627  1.00  0.00     0.323 C 
ATOM     27  H   UNL     1      16.964  35.194  11.106  1.00  0.00     0.171 HD
ATOM     28  O   UNL     1      16.346  32.013  11.109  1.00  0.00    -0.248 OA
ATOM     29  N   UNL     1      16.623  33.352   9.209  1.00  0.00    -0.308 N 
ATOM     30  H   UNL     1      16.486  34.318   8.835  1.00  0.00     0.171 HD
BRANCH  29  31
ATOM     31  C   UNL     1      16.789  32.281   8.265  1.00  0.00     0.042 A 
ATOM     32  C   UNL     1      18.073  31.975   7.788  1.00  0.00     0.026 A 
ATOM     33  C   UNL     1      15.700  31.488   7.852  1.00  0.00     0.026 A 
ATOM     34  C   UNL     1      18.263  30.923   6.886  1.00  0.00     0.002 A 
ATOM     35  C   UNL     1      15.894  30.438   6.950  1.00  0.00     0.002 A 
ATOM     36  C   UNL     1      17.173  30.158   6.464  1.00  0.00     0.000 A 
ENDBRANCH  29  31
ENDBRANCH   7  25
TORSDOF 5
ENDMDL
MODEL 6
REMARK VINA RESULT:    -8.777      2.117      2.609
REMARK INTER + INTRA:         -12.351
REMARK INTER:                 -11.876
REMARK INTRA:                  -0.475
REMARK UNBOUND:                -1.008
REMARK SMILES CCn1c(=O)c(-c2cc(NC(=O)Nc3ccccc3)c(F)cc2Br)cc2cnc(NC)cc21
REMARK SMILES IDX 7 1 23 2 24 3 22 4 20 5 21 6 9 7 8 8 6 9 3 10 4 11 33 12
REMARK SMILES IDX 5 13 26 14 32 15 25 16 27 17 29 18 28 19 2 20 1 21 30 22
REMARK SMILES IDX 31 23 10 25 11 26 12 28 13 29 14 31 15 32 19 33 16 34 18 35
REMARK SMILES IDX 17 36
REMARK H PARENT 30 24 10 27 13 30
REMARK Flexibility Score: inf
ROOT
ATOM      1  C   UNL     1      19.633  35.004  14.885  1.00  0.00     0.004 A 
ATOM      2  C   UNL     1      18.947  35.767  15.850  1.00  0.00     0.029 A 
ATOM      3  Br  UNL     1      19.873  36.880  17.109  1.00  0.00    -0.050 Br
ATOM      4  C   UNL     1      17.548  35.764  15.871  1.00  0.00     0.057 A 
ATOM      5  C   UNL     1      16.826  35.005  14.947  1.00  0.00     0.147 A 
ATOM      6  F   UNL     1      15.471  35.074  14.955  1.00  0.00    -0.205 F 
ATOM      7  C   UNL     1      17.502  34.228  13.990  1.00  0.00     0.079 A 
ATOM      8  C   UNL     1      18.903  34.253  13.950  1.00  0.00     0.039 A 
ENDROOT
BRANCH   1   9
ATOM      9  C   UNL     1      21.112  34.986  14.825  1.00  0.00     0.049 A 
ATOM     10  N   UNL     1      23.241  34.083  15.544  1.00  0.00    -0.308 N 
ATOM     11  C   UNL     1      21.863  34.096  15.610  1.00  0.00     0.258 A 
ATOM     12  C   UNL     1      23.904  34.991  14.733  1.00  0.00     0.056 A 
ATOM     13  O   UNL     1      21.253  33.299  16.377  1.00  0.00    -0.269 OA
ATOM     14  C   UNL     1      23.160  35.875  13.915  1.00  0.00     0.018 A 
ATOM     15  C   UNL     1      25.317  35.086  14.688  1.00  0.00     0.073 A 
ATOM     16  C   UNL     1      21.769  35.855  13.959  1.00  0.00     0.026 A 
ATOM     17  C   UNL     1      23.824  36.777  13.075  1.00  0.00     0.123 A 
ATOM     18  C   UNL     1      25.942  36.011  13.832  1.00  0.00     0.127 A 
ATOM     19  N   UNL     1      25.178  36.821  13.053  1.00  0.00    -0.239 NA
BRANCH  10  20
ATOM     20  C   UNL     1      23.975  33.104  16.381  1.00  0.00     0.122 C 
ATOM     21  C   UNL     1      24.229  33.669  17.775  1.00  0.00     0.028 C 
ENDBRANCH  10  20
BRANCH  18  22
ATOM     22  N   UNL     1      27.372  36.132  13.758  1.00  0.00    -0.373 N 
ATOM     23  C   UNL     1      28.246  36.194  14.925  1.00  0.00     0.141 C 
ATOM     24  H   UNL     1      27.816  36.178  12.812  1.00  0.00     0.161 HD
ENDBRANCH  18  22
ENDBRANCH   1   9
BRANCH   7  25
ATOM     25  N   UNL     1      16.786  33.453  13.014  1.00  0.00    -0.305 N 
ATOM     26  C   UNL     1      17.215  33.302  11.654  1.00  0.00     0.323 C 
ATOM     27  H   UNL     1      15.835  33.099  13.267  1.00  0.00     0.171 HD
ATOM     28  O   UNL     1      18.186  33.978  11.216  1.00  0.00    -0.248 OA
ATOM     29  N   UNL     1      16.531  32.375  10.797  1.00  0.00    -0.308 N 
ATOM     30  H   UNL     1      15.924  31.657  11.252  1.00  0.00     0.171 HD
BRANCH  29  31
ATOM     31  C   UNL     1      16.727  32.293   9.375  1.00  0.00     0.042 A 
ATOM     32  C   UNL     1      17.838  31.599   8.872  1.00  0.00     0.026 A 
ATOM     33  C   UNL     1      15.795  32.840   8.471  1.00  0.00     0.026 A 
ATOM     34  C   UNL     1      18.039  31.486   7.492  1.00  0.00     0.002 A 
ATOM     35  C   UNL     1      15.999  32.725   7.093  1.00  0.00     0.002 A 
ATOM     36  C   UNL     1      17.122  32.052   6.603  1.00  0.00     0.000 A 
ENDBRANCH  29  31
ENDBRANCH   7  25
TORSDOF 5
ENDMDL
MODEL 7
REMARK VINA RESULT:    -8.660      5.447     10.457
REMARK INTER + INTRA:         -12.200
REMARK INTER:                 -11.703
REMARK INTRA:                  -0.497
REMARK UNBOUND:                -1.008
REMARK SMILES CCn1c(=O)c(-c2cc(NC(=O)Nc3ccccc3)c(F)cc2Br)cc2cnc(NC)cc21
REMARK SMILES IDX 7 1 23 2 24 3 22 4 20 5 21 6 9 7 8 8 6 9 3 10 4 11 33 12
REMARK SMILES IDX 5 13 26 14 32 15 25 16 27 17 29 18 28 19 2 20 1 21 30 22
REMARK SMILES IDX 31 23 10 25 11 26 12 28 13 29 14 31 15 32 19 33 16 34 18 35
REMARK SMILES IDX 17 36
REMARK H PARENT 30 24 10 27 13 30
REMARK Flexibility Score: inf
ROOT
ATOM      1  C   UNL     1      17.227  35.148  16.228  1.00  0.00     0.004 A 
ATOM      2  C   UNL     1      15.942  35.038  16.794  1.00  0.00     0.029 A 
ATOM      3  Br  UNL     1      14.610  33.861  16.069  1.00  0.00    -0.050 Br
ATOM      4  C   UNL     1      15.628  35.762  17.950  1.00  0.00     0.057 A 
ATOM      5  C   UNL     1      16.577  36.599  18.543  1.00  0.00     0.147 A 
ATOM      6  F   UNL     1      16.260  37.237  19.698  1.00  0.00    -0.205 F 
ATOM      7  C   UNL     1      17.857  36.727  17.976  1.00  0.00     0.079 A 
ATOM      8  C   UNL     1      18.181  35.980  16.834  1.00  0.00     0.039 A 
ENDROOT
BRANCH   1   9
ATOM      9  C   UNL     1      17.599  34.394  15.010  1.00  0.00     0.049 A 
ATOM     10  N   UNL     1      18.964  32.736  13.890  1.00  0.00    -0.308 N 
ATOM     11  C   UNL     1      18.627  33.437  15.029  1.00  0.00     0.258 A 
ATOM     12  C   UNL     1      18.319  33.007  12.694  1.00  0.00     0.056 A 
ATOM     13  O   UNL     1      19.238  33.224  16.115  1.00  0.00    -0.269 OA
ATOM     14  C   UNL     1      17.261  33.948  12.665  1.00  0.00     0.018 A 
ATOM     15  C   UNL     1      18.678  32.384  11.473  1.00  0.00     0.073 A 
ATOM     16  C   UNL     1      16.902  34.623  13.828  1.00  0.00     0.026 A 
ATOM     17  C   UNL     1      16.588  34.208  11.464  1.00  0.00     0.123 A 
ATOM     18  C   UNL     1      17.978  32.679  10.290  1.00  0.00     0.127 A 
ATOM     19  N   UNL     1      16.957  33.575  10.324  1.00  0.00    -0.239 NA
BRANCH  10  20
ATOM     20  C   UNL     1      20.043  31.723  13.983  1.00  0.00     0.122 C 
ATOM     21  C   UNL     1      21.411  32.375  13.800  1.00  0.00     0.028 C 
ENDBRANCH  10  20
BRANCH  18  22
ATOM     22  N   UNL     1      18.312  32.064   9.034  1.00  0.00    -0.373 N 
ATOM     23  C   UNL     1      17.325  31.541   8.096  1.00  0.00     0.141 C 
ATOM     24  H   UNL     1      19.322  31.986   8.775  1.00  0.00     0.161 HD
ENDBRANCH  18  22
ENDBRANCH   1   9
BRANCH   7  25
ATOM     25  N   UNL     1      18.860  37.565  18.573  1.00  0.00    -0.305 N 
ATOM     26  C   UNL     1      19.901  37.068  19.426  1.00  0.00     0.323 C 
ATOM     27  H   UNL     1      18.743  38.601  18.502  1.00  0.00     0.171 HD
ATOM     28  O   UNL     1      19.890  35.865  19.805  1.00  0.00    -0.248 OA
ATOM     29  N   UNL     1      20.954  37.950  19.841  1.00  0.00    -0.308 N 
ATOM     30  H   UNL     1      21.077  38.840  19.307  1.00  0.00     0.171 HD
BRANCH  29  31
ATOM     31  C   UNL     1      21.924  37.632  20.854  1.00  0.00     0.042 A 
ATOM     32  C   UNL     1      21.675  37.998  22.185  1.00  0.00     0.026 A 
ATOM     33  C   UNL     1      23.092  36.905  20.551  1.00  0.00     0.026 A 
ATOM     34  C   UNL     1      22.593  37.680  23.192  1.00  0.00     0.002 A 
ATOM     35  C   UNL     1      24.007  36.590  21.559  1.00  0.00     0.002 A 
ATOM     36  C   UNL     1      23.761  36.980  22.878  1.00  0.00     0.000 A 
ENDBRANCH  29  31
ENDBRANCH   7  25
TORSDOF 5
ENDMDL
MODEL 8
REMARK VINA RESULT:    -8.417      2.701      4.275
REMARK INTER + INTRA:         -11.885
REMARK INTER:                 -11.577
REMARK INTRA:                  -0.308
REMARK UNBOUND:                -1.008
REMARK SMILES CCn1c(=O)c(-c2cc(NC(=O)Nc3ccccc3)c(F)cc2Br)cc2cnc(NC)cc21
REMARK SMILES IDX 7 1 23 2 24 3 22 4 20 5 21 6 9 7 8 8 6 9 3 10 4 11 33 12
REMARK SMILES IDX 5 13 26 14 32 15 25 16 27 17 29 18 28 19 2 20 1 21 30 22
REMARK SMILES IDX 31 23 10 25 11 26 12 28 13 29 14 31 15 32 19 33 16 34 18 35
REMARK SMILES IDX 17 36
REMARK H PARENT 30 24 10 27 13 30
REMARK Flexibility Score: inf
ROOT
ATOM      1  C   UNL     1      21.542  33.930  15.129  1.00  0.00     0.004 A 
ATOM      2  C   UNL     1      21.379  33.759  16.517  1.00  0.00     0.029 A 
ATOM      3  Br  UNL     1      22.870  33.441  17.683  1.00  0.00    -0.050 Br
ATOM      4  C   UNL     1      20.106  33.873  17.086  1.00  0.00     0.057 A 
ATOM      5  C   UNL     1      18.993  34.148  16.288  1.00  0.00     0.147 A 
ATOM      6  F   UNL     1      17.783  34.314  16.880  1.00  0.00    -0.205 F 
ATOM      7  C   UNL     1      19.143  34.304  14.898  1.00  0.00     0.079 A 
ATOM      8  C   UNL     1      20.423  34.218  14.332  1.00  0.00     0.039 A 
ENDROOT
BRANCH   1   9
ATOM      9  C   UNL     1      22.872  33.823  14.490  1.00  0.00     0.049 A 
ATOM     10  N   UNL     1      24.956  34.830  13.776  1.00  0.00    -0.308 N 
ATOM     11  C   UNL     1      23.716  34.940  14.369  1.00  0.00     0.258 A 
ATOM     12  C   UNL     1      25.365  33.616  13.245  1.00  0.00     0.056 A 
ATOM     13  O   UNL     1      23.320  36.051  14.821  1.00  0.00    -0.269 OA
ATOM     14  C   UNL     1      24.538  32.476  13.384  1.00  0.00     0.018 A 
ATOM     15  C   UNL     1      26.588  33.460  12.548  1.00  0.00     0.073 A 
ATOM     16  C   UNL     1      23.304  32.588  14.018  1.00  0.00     0.026 A 
ATOM     17  C   UNL     1      24.956  31.241  12.871  1.00  0.00     0.123 A 
ATOM     18  C   UNL     1      26.966  32.202  12.045  1.00  0.00     0.127 A 
ATOM     19  N   UNL     1      26.143  31.136  12.226  1.00  0.00    -0.239 NA
BRANCH  10  20
ATOM     20  C   UNL     1      25.808  36.040  13.701  1.00  0.00     0.122 C 
ATOM     21  C   UNL     1      26.782  36.089  14.875  1.00  0.00     0.028 C 
ENDBRANCH  10  20
BRANCH  18  22
ATOM     22  N   UNL     1      28.201  32.005  11.336  1.00  0.00    -0.373 N 
ATOM     23  C   UNL     1      28.755  30.694  11.014  1.00  0.00     0.141 C 
ATOM     24  H   UNL     1      28.736  32.850  11.032  1.00  0.00     0.161 HD
ENDBRANCH  18  22
ENDBRANCH   1   9
BRANCH   7  25
ATOM     25  N   UNL     1      18.021  34.606  14.054  1.00  0.00    -0.305 N 
ATOM     26  C   UNL     1      17.865  34.082  12.727  1.00  0.00     0.323 C 
ATOM     27  H   UNL     1      17.358  35.354  14.362  1.00  0.00     0.171 HD
ATOM     28  O   UNL     1      18.802  33.432  12.188  1.00  0.00    -0.248 OA
ATOM     29  N   UNL     1      16.634  34.302  12.022  1.00  0.00    -0.308 N 
ATOM     30  H   UNL     1      15.804  34.601  12.582  1.00  0.00     0.171 HD
BRANCH  29  31
ATOM     31  C   UNL     1      16.439  34.016  10.627  1.00  0.00     0.042 A 
ATOM     32  C   UNL     1      16.524  32.689  10.178  1.00  0.00     0.026 A 
ATOM     33  C   UNL     1      16.103  35.029   9.708  1.00  0.00     0.026 A 
ATOM     34  C   UNL     1      16.317  32.382   8.828  1.00  0.00     0.002 A 
ATOM     35  C   UNL     1      15.897  34.719   8.360  1.00  0.00     0.002 A 
ATOM     36  C   UNL     1      16.008  33.397   7.920  1.00  0.00     0.000 A 
ENDBRANCH  29  31
ENDBRANCH   7  25
TORSDOF 5
ENDMDL
MODEL 9
REMARK VINA RESULT:    -8.295      3.131      4.063
REMARK INTER + INTRA:         -11.727
REMARK INTER:                 -11.120
REMARK INTRA:                  -0.607
REMARK UNBOUND:                -1.008
REMARK SMILES CCn1c(=O)c(-c2cc(NC(=O)Nc3ccccc3)c(F)cc2Br)cc2cnc(NC)cc21
REMARK SMILES IDX 7 1 23 2 24 3 22 4 20 5 21 6 9 7 8 8 6 9 3 10 4 11 33 12
REMARK SMILES IDX 5 13 26 14 32 15 25 16 27 17 29 18 28 19 2 20 1 21 30 22
REMARK SMILES IDX 31 23 10 25 11 26 12 28 13 29 14 31 15 32 19 33 16 34 18 35
REMARK SMILES IDX 17 36
REMARK H PARENT 30 24 10 27 13 30
REMARK Flexibility Score: inf
ROOT
ATOM      1  C   UNL     1      19.693  34.746  15.716  1.00  0.00     0.004 A 
ATOM      2  C   UNL     1      18.963  35.737  16.401  1.00  0.00     0.029 A 
ATOM      3  Br  UNL     1      19.791  36.907  17.678  1.00  0.00    -0.050 Br
ATOM      4  C   UNL     1      17.605  35.919  16.118  1.00  0.00     0.057 A 
ATOM      5  C   UNL     1      16.965  35.123  15.165  1.00  0.00     0.147 A 
ATOM      6  F   UNL     1      15.664  35.369  14.869  1.00  0.00    -0.205 F 
ATOM      7  C   UNL     1      17.682  34.122  14.486  1.00  0.00     0.079 A 
ATOM      8  C   UNL     1      19.049  33.957  14.750  1.00  0.00     0.039 A 
ENDROOT
BRANCH   1   9
ATOM      9  C   UNL     1      21.132  34.526  15.982  1.00  0.00     0.049 A 
ATOM     10  N   UNL     1      23.449  34.649  15.289  1.00  0.00    -0.308 N 
ATOM     11  C   UNL     1      22.110  34.854  15.029  1.00  0.00     0.258 A 
ATOM     12  C   UNL     1      23.842  34.067  16.484  1.00  0.00     0.056 A 
ATOM     13  O   UNL     1      21.741  35.347  13.926  1.00  0.00    -0.269 OA
ATOM     14  C   UNL     1      22.871  33.758  17.466  1.00  0.00     0.018 A 
ATOM     15  C   UNL     1      25.192  33.752  16.773  1.00  0.00     0.073 A 
ATOM     16  C   UNL     1      21.524  34.003  17.211  1.00  0.00     0.026 A 
ATOM     17  C   UNL     1      23.263  33.193  18.686  1.00  0.00     0.123 A 
ATOM     18  C   UNL     1      25.541  33.180  18.010  1.00  0.00     0.127 A 
ATOM     19  N   UNL     1      24.570  32.924  18.925  1.00  0.00    -0.239 NA
BRANCH  10  20
ATOM     20  C   UNL     1      24.433  35.038  14.250  1.00  0.00     0.122 C 
ATOM     21  C   UNL     1      24.859  36.492  14.428  1.00  0.00     0.028 C 
ENDBRANCH  10  20
BRANCH  18  22
ATOM     22  N   UNL     1      26.901  32.851  18.339  1.00  0.00    -0.373 N 
ATOM     23  C   UNL     1      27.298  31.630  19.033  1.00  0.00     0.141 C 
ATOM     24  H   UNL     1      27.653  33.524  18.066  1.00  0.00     0.161 HD
ENDBRANCH  18  22
ENDBRANCH   1   9
BRANCH   7  25
ATOM     25  N   UNL     1      17.056  33.300  13.487  1.00  0.00    -0.305 N 
ATOM     26  C   UNL     1      17.403  33.343  12.096  1.00  0.00     0.323 C 
ATOM     27  H   UNL     1      16.211  32.749  13.761  1.00  0.00     0.171 HD
ATOM     28  O   UNL     1      18.194  34.228  11.667  1.00  0.00    -0.248 OA
ATOM     29  N   UNL     1      16.846  32.370  11.199  1.00  0.00    -0.308 N 
ATOM     30  H   UNL     1      16.422  31.514  11.621  1.00  0.00     0.171 HD
BRANCH  29  31
ATOM     31  C   UNL     1      16.948  32.439   9.767  1.00  0.00     0.042 A 
ATOM     32  C   UNL     1      16.131  33.336   9.060  1.00  0.00     0.026 A 
ATOM     33  C   UNL     1      17.892  31.670   9.059  1.00  0.00     0.026 A 
ATOM     34  C   UNL     1      16.228  33.436   7.668  1.00  0.00     0.002 A 
ATOM     35  C   UNL     1      17.985  31.774   7.668  1.00  0.00     0.002 A 
ATOM     36  C   UNL     1      17.151  32.653   6.972  1.00  0.00     0.000 A 
ENDBRANCH  29  31
ENDBRANCH   7  25
TORSDOF 5
ENDMDL
MODEL 10
REMARK VINA RESULT:    -8.292      5.055      9.298
REMARK INTER + INTRA:         -11.724
REMARK INTER:                 -11.144
REMARK INTRA:                  -0.580
REMARK UNBOUND:                -1.008
REMARK SMILES CCn1c(=O)c(-c2cc(NC(=O)Nc3ccccc3)c(F)cc2Br)cc2cnc(NC)cc21
REMARK SMILES IDX 7 1 23 2 24 3 22 4 20 5 21 6 9 7 8 8 6 9 3 10 4 11 33 12
REMARK SMILES IDX 5 13 26 14 32 15 25 16 27 17 29 18 28 19 2 20 1 21 30 22
REMARK SMILES IDX 31 23 10 25 11 26 12 28 13 29 14 31 15 32 19 33 16 34 18 35
REMARK SMILES IDX 17 36
REMARK H PARENT 30 24 10 27 13 30
REMARK Flexibility Score: inf
ROOT
ATOM      1  C   UNL     1      23.445  34.029  15.601  1.00  0.00     0.004 A 
ATOM      2  C   UNL     1      23.908  33.696  16.888  1.00  0.00     0.029 A 
ATOM      3  Br  UNL     1      22.710  33.462  18.369  1.00  0.00    -0.050 Br
ATOM      4  C   UNL     1      25.273  33.476  17.099  1.00  0.00     0.057 A 
ATOM      5  C   UNL     1      26.182  33.591  16.045  1.00  0.00     0.147 A 
ATOM      6  F   UNL     1      27.491  33.309  16.270  1.00  0.00    -0.205 F 
ATOM      7  C   UNL     1      25.731  33.938  14.759  1.00  0.00     0.079 A 
ATOM      8  C   UNL     1      24.360  34.131  14.542  1.00  0.00     0.039 A 
ENDROOT
BRANCH   1   9
ATOM      9  C   UNL     1      22.008  34.264  15.336  1.00  0.00     0.049 A 
ATOM     10  N   UNL     1      20.041  35.672  15.461  1.00  0.00    -0.308 N 
ATOM     11  C   UNL     1      21.380  35.461  15.717  1.00  0.00     0.258 A 
ATOM     12  C   UNL     1      19.285  34.676  14.865  1.00  0.00     0.056 A 
ATOM     13  O   UNL     1      22.068  36.349  16.296  1.00  0.00    -0.269 OA
ATOM     14  C   UNL     1      19.909  33.475  14.449  1.00  0.00     0.018 A 
ATOM     15  C   UNL     1      17.889  34.798  14.655  1.00  0.00     0.073 A 
ATOM     16  C   UNL     1      21.269  33.286  14.677  1.00  0.00     0.026 A 
ATOM     17  C   UNL     1      19.155  32.474  13.823  1.00  0.00     0.123 A 
ATOM     18  C   UNL     1      17.170  33.765  14.027  1.00  0.00     0.127 A 
ATOM     19  N   UNL     1      17.824  32.642  13.629  1.00  0.00    -0.239 NA
BRANCH  10  20
ATOM     20  C   UNL     1      19.444  36.966  15.868  1.00  0.00     0.122 C 
ATOM     21  C   UNL     1      18.996  36.919  17.326  1.00  0.00     0.028 C 
ENDBRANCH  10  20
BRANCH  18  22
ATOM     22  N   UNL     1      15.754  33.856  13.794  1.00  0.00    -0.373 N 
ATOM     23  C   UNL     1      14.792  34.305  14.795  1.00  0.00     0.141 C 
ATOM     24  H   UNL     1      15.390  33.586  12.852  1.00  0.00     0.161 HD
ENDBRANCH  18  22
ENDBRANCH   1   9
BRANCH   7  25
ATOM     25  N   UNL     1      26.640  34.045  13.651  1.00  0.00    -0.305 N 
ATOM     26  C   UNL     1      27.293  32.917  13.051  1.00  0.00     0.323 C 
ATOM     27  H   UNL     1      26.951  34.999  13.359  1.00  0.00     0.171 HD
ATOM     28  O   UNL     1      27.199  31.775  13.580  1.00  0.00    -0.248 OA
ATOM     29  N   UNL     1      28.050  33.099  11.845  1.00  0.00    -0.308 N 
ATOM     30  H   UNL     1      27.888  33.977  11.303  1.00  0.00     0.171 HD
BRANCH  29  31
ATOM     31  C   UNL     1      28.914  32.102  11.275  1.00  0.00     0.042 A 
ATOM     32  C   UNL     1      30.295  32.343  11.210  1.00  0.00     0.026 A 
ATOM     33  C   UNL     1      28.414  30.860  10.834  1.00  0.00     0.026 A 
ATOM     34  C   UNL     1      31.159  31.379  10.679  1.00  0.00     0.002 A 
ATOM     35  C   UNL     1      29.281  29.900  10.305  1.00  0.00     0.002 A 
ATOM     36  C   UNL     1      30.651  30.160  10.223  1.00  0.00     0.000 A 
ENDBRANCH  29  31
ENDBRANCH   7  25
TORSDOF 5
ENDMDL
MODEL 11
REMARK VINA RESULT:    -8.286      1.986      2.610
REMARK INTER + INTRA:         -11.717
REMARK INTER:                 -12.427
REMARK INTRA:                   0.711
REMARK UNBOUND:                -1.008
REMARK SMILES CCn1c(=O)c(-c2cc(NC(=O)Nc3ccccc3)c(F)cc2Br)cc2cnc(NC)cc21
REMARK SMILES IDX 7 1 23 2 24 3 22 4 20 5 21 6 9 7 8 8 6 9 3 10 4 11 33 12
REMARK SMILES IDX 5 13 26 14 32 15 25 16 27 17 29 18 28 19 2 20 1 21 30 22
REMARK SMILES IDX 31 23 10 25 11 26 12 28 13 29 14 31 15 32 19 33 16 34 18 35
REMARK SMILES IDX 17 36
REMARK H PARENT 30 24 10 27 13 30
REMARK Flexibility Score: inf
ROOT
ATOM      1  C   UNL     1      19.487  34.067  13.372  1.00  0.00     0.004 A 
ATOM      2  C   UNL     1      18.401  34.346  14.225  1.00  0.00     0.029 A 
ATOM      3  Br  UNL     1      18.650  34.758  16.083  1.00  0.00    -0.050 Br
ATOM      4  C   UNL     1      17.102  34.378  13.708  1.00  0.00     0.057 A 
ATOM      5  C   UNL     1      16.871  34.129  12.353  1.00  0.00     0.147 A 
ATOM      6  F   UNL     1      15.606  34.230  11.872  1.00  0.00    -0.205 F 
ATOM      7  C   UNL     1      17.946  33.834  11.496  1.00  0.00     0.079 A 
ATOM      8  C   UNL     1      19.251  33.830  12.009  1.00  0.00     0.039 A 
ENDROOT
BRANCH   1   9
ATOM      9  C   UNL     1      20.876  34.031  13.880  1.00  0.00     0.049 A 
ATOM     10  N   UNL     1      23.255  34.335  13.541  1.00  0.00    -0.308 N 
ATOM     11  C   UNL     1      21.964  34.368  13.057  1.00  0.00     0.258 A 
ATOM     12  C   UNL     1      23.498  33.918  14.840  1.00  0.00     0.056 A 
ATOM     13  O   UNL     1      21.737  34.709  11.862  1.00  0.00    -0.269 OA
ATOM     14  C   UNL     1      22.411  33.602  15.690  1.00  0.00     0.018 A 
ATOM     15  C   UNL     1      24.806  33.780  15.367  1.00  0.00     0.073 A 
ATOM     16  C   UNL     1      21.108  33.675  15.205  1.00  0.00     0.026 A 
ATOM     17  C   UNL     1      22.648  33.204  17.012  1.00  0.00     0.123 A 
ATOM     18  C   UNL     1      24.997  33.372  16.699  1.00  0.00     0.127 A 
ATOM     19  N   UNL     1      23.917  33.102  17.477  1.00  0.00    -0.239 NA
BRANCH  10  20
ATOM     20  C   UNL     1      24.356  34.725  12.628  1.00  0.00     0.122 C 
ATOM     21  C   UNL     1      24.784  33.542  11.763  1.00  0.00     0.028 C 
ENDBRANCH  10  20
BRANCH  18  22
ATOM     22  N   UNL     1      26.309  33.224  17.268  1.00  0.00    -0.373 N 
ATOM     23  C   UNL     1      26.581  33.240  18.702  1.00  0.00     0.141 C 
ATOM     24  H   UNL     1      27.118  33.097  16.619  1.00  0.00     0.161 HD
ENDBRANCH  18  22
ENDBRANCH   1   9
BRANCH   7  25
ATOM     25  N   UNL     1      17.742  33.593  10.094  1.00  0.00    -0.305 N 
ATOM     26  C   UNL     1      17.720  32.282   9.512  1.00  0.00     0.323 C 
ATOM     27  H   UNL     1      17.754  34.413   9.446  1.00  0.00     0.171 HD
ATOM     28  O   UNL     1      18.027  31.275  10.207  1.00  0.00    -0.248 OA
ATOM     29  N   UNL     1      17.344  32.128   8.136  1.00  0.00    -0.308 N 
ATOM     30  H   UNL     1      16.849  32.927   7.679  1.00  0.00     0.171 HD
BRANCH  29  31
ATOM     31  C   UNL     1      17.488  30.908   7.390  1.00  0.00     0.042 A 
ATOM     32  C   UNL     1      16.458  29.955   7.422  1.00  0.00     0.026 A 
ATOM     33  C   UNL     1      18.613  30.671   6.576  1.00  0.00     0.026 A 
ATOM     34  C   UNL     1      16.565  28.769   6.688  1.00  0.00     0.002 A 
ATOM     35  C   UNL     1      18.717  29.485   5.844  1.00  0.00     0.002 A 
ATOM     36  C   UNL     1      17.696  28.533   5.902  1.00  0.00     0.000 A 
ENDBRANCH  29  31
ENDBRANCH   7  25
TORSDOF 5
ENDMDL
MODEL 12
REMARK VINA RESULT:    -8.220      4.824      8.727
REMARK INTER + INTRA:         -11.630
REMARK INTER:                 -10.765
REMARK INTRA:                  -0.865
REMARK UNBOUND:                -1.008
REMARK SMILES CCn1c(=O)c(-c2cc(NC(=O)Nc3ccccc3)c(F)cc2Br)cc2cnc(NC)cc21
REMARK SMILES IDX 7 1 23 2 24 3 22 4 20 5 21 6 9 7 8 8 6 9 3 10 4 11 33 12
REMARK SMILES IDX 5 13 26 14 32 15 25 16 27 17 29 18 28 19 2 20 1 21 30 22
REMARK SMILES IDX 31 23 10 25 11 26 12 28 13 29 14 31 15 32 19 33 16 34 18 35
REMARK SMILES IDX 17 36
REMARK H PARENT 30 24 10 27 13 30
REMARK Flexibility Score: inf
ROOT
ATOM      1  C   UNL     1      20.698  33.887  14.471  1.00  0.00     0.004 A 
ATOM      2  C   UNL     1      19.556  33.623  13.690  1.00  0.00     0.029 A 
ATOM      3  Br  UNL     1      19.684  33.131  11.839  1.00  0.00    -0.050 Br
ATOM      4  C   UNL     1      18.288  33.666  14.279  1.00  0.00     0.057 A 
ATOM      5  C   UNL     1      18.143  33.975  15.634  1.00  0.00     0.147 A 
ATOM      6  F   UNL     1      16.904  33.945  16.186  1.00  0.00    -0.205 F 
ATOM      7  C   UNL     1      19.276  34.255  16.418  1.00  0.00     0.079 A 
ATOM      8  C   UNL     1      20.549  34.184  15.835  1.00  0.00     0.039 A 
ENDROOT
BRANCH   1   9
ATOM      9  C   UNL     1      22.057  33.845  13.888  1.00  0.00     0.049 A 
ATOM     10  N   UNL     1      23.957  34.962  12.883  1.00  0.00    -0.308 N 
ATOM     11  C   UNL     1      22.688  35.011  13.421  1.00  0.00     0.258 A 
ATOM     12  C   UNL     1      24.607  33.746  12.751  1.00  0.00     0.056 A 
ATOM     13  O   UNL     1      22.071  36.110  13.508  1.00  0.00    -0.269 OA
ATOM     14  C   UNL     1      23.997  32.567  13.243  1.00  0.00     0.018 A 
ATOM     15  C   UNL     1      25.874  33.619  12.129  1.00  0.00     0.073 A 
ATOM     16  C   UNL     1      22.732  32.630  13.819  1.00  0.00     0.026 A 
ATOM     17  C   UNL     1      24.660  31.338  13.135  1.00  0.00     0.123 A 
ATOM     18  C   UNL     1      26.501  32.364  12.038  1.00  0.00     0.127 A 
ATOM     19  N   UNL     1      25.878  31.268  12.546  1.00  0.00    -0.239 NA
BRANCH  10  20
ATOM     20  C   UNL     1      24.575  36.231  12.430  1.00  0.00     0.122 C 
ATOM     21  C   UNL     1      24.082  36.603  11.034  1.00  0.00     0.028 C 
ENDBRANCH  10  20
BRANCH  18  22
ATOM     22  N   UNL     1      27.787  32.199  11.416  1.00  0.00    -0.373 N 
ATOM     23  C   UNL     1      28.357  30.905  11.055  1.00  0.00     0.141 C 
ATOM     24  H   UNL     1      28.349  33.056  11.209  1.00  0.00     0.161 HD
ENDBRANCH  18  22
ENDBRANCH   1   9
BRANCH   7  25
ATOM     25  N   UNL     1      19.161  34.557  17.818  1.00  0.00    -0.305 N 
ATOM     26  C   UNL     1      18.992  35.887  18.329  1.00  0.00     0.323 C 
ATOM     27  H   UNL     1      19.351  33.793  18.504  1.00  0.00     0.171 HD
ATOM     28  O   UNL     1      19.083  36.880  17.556  1.00  0.00    -0.248 OA
ATOM     29  N   UNL     1      18.718  36.077  19.725  1.00  0.00    -0.308 N 
ATOM     30  H   UNL     1      18.391  35.247  20.269  1.00  0.00     0.171 HD
BRANCH  29  31
ATOM     31  C   UNL     1      18.742  37.352  20.388  1.00  0.00     0.042 A 
ATOM     32  C   UNL     1      17.734  38.290  20.113  1.00  0.00     0.026 A 
ATOM     33  C   UNL     1      19.719  37.662  21.355  1.00  0.00     0.026 A 
ATOM     34  C   UNL     1      17.723  39.530  20.761  1.00  0.00     0.002 A 
ATOM     35  C   UNL     1      19.704  38.901  22.000  1.00  0.00     0.002 A 
ATOM     36  C   UNL     1      18.710  39.836  21.701  1.00  0.00     0.000 A 
ENDBRANCH  29  31
ENDBRANCH   7  25
TORSDOF 5
ENDMDL
MODEL 13
REMARK VINA RESULT:    -8.114      4.741      9.140
REMARK INTER + INTRA:         -11.494
REMARK INTER:                 -11.062
REMARK INTRA:                  -0.433
REMARK UNBOUND:                -1.008
REMARK SMILES CCn1c(=O)c(-c2cc(NC(=O)Nc3ccccc3)c(F)cc2Br)cc2cnc(NC)cc21
REMARK SMILES IDX 7 1 23 2 24 3 22 4 20 5 21 6 9 7 8 8 6 9 3 10 4 11 33 12
REMARK SMILES IDX 5 13 26 14 32 15 25 16 27 17 29 18 28 19 2 20 1 21 30 22
REMARK SMILES IDX 31 23 10 25 11 26 12 28 13 29 14 31 15 32 19 33 16 34 18 35
REMARK SMILES IDX 17 36
REMARK H PARENT 30 24 10 27 13 30
REMARK Flexibility Score: inf
ROOT
ATOM      1  C   UNL     1      23.773  34.362  15.807  1.00  0.00     0.004 A 
ATOM      2  C   UNL     1      24.278  34.429  17.120  1.00  0.00     0.029 A 
ATOM      3  Br  UNL     1      23.129  34.341  18.655  1.00  0.00    -0.050 Br
ATOM      4  C   UNL     1      25.659  34.511  17.329  1.00  0.00     0.057 A 
ATOM      5  C   UNL     1      26.541  34.534  16.246  1.00  0.00     0.147 A 
ATOM      6  F   UNL     1      27.877  34.550  16.486  1.00  0.00    -0.205 F 
ATOM      7  C   UNL     1      26.046  34.483  14.931  1.00  0.00     0.079 A 
ATOM      8  C   UNL     1      24.664  34.373  14.722  1.00  0.00     0.039 A 
ENDROOT
BRANCH   1   9
ATOM      9  C   UNL     1      22.320  34.269  15.544  1.00  0.00     0.049 A 
ATOM     10  N   UNL     1      20.397  33.040  14.731  1.00  0.00    -0.308 N 
ATOM     11  C   UNL     1      21.754  33.119  14.968  1.00  0.00     0.258 A 
ATOM     12  C   UNL     1      19.580  34.122  15.016  1.00  0.00     0.056 A 
ATOM     13  O   UNL     1      22.512  32.152  14.675  1.00  0.00    -0.269 OA
ATOM     14  C   UNL     1      20.131  35.277  15.622  1.00  0.00     0.018 A 
ATOM     15  C   UNL     1      18.196  34.135  14.716  1.00  0.00     0.073 A 
ATOM     16  C   UNL     1      21.495  35.334  15.893  1.00  0.00     0.026 A 
ATOM     17  C   UNL     1      19.306  36.365  15.935  1.00  0.00     0.123 A 
ATOM     18  C   UNL     1      17.406  35.251  15.043  1.00  0.00     0.127 A 
ATOM     19  N   UNL     1      17.983  36.325  15.643  1.00  0.00    -0.239 NA
BRANCH  10  20
ATOM     20  C   UNL     1      19.860  31.790  14.143  1.00  0.00     0.122 C 
ATOM     21  C   UNL     1      19.977  31.816  12.621  1.00  0.00     0.028 C 
ENDBRANCH  10  20
BRANCH  18  22
ATOM     22  N   UNL     1      15.997  35.297  14.756  1.00  0.00    -0.373 N 
ATOM     23  C   UNL     1      15.007  34.441  15.401  1.00  0.00     0.141 C 
ATOM     24  H   UNL     1      15.660  35.985  14.045  1.00  0.00     0.161 HD
ENDBRANCH  18  22
ENDBRANCH   1   9
BRANCH   7  25
ATOM     25  N   UNL     1      26.929  34.486  13.798  1.00  0.00    -0.305 N 
ATOM     26  C   UNL     1      27.498  33.295  13.235  1.00  0.00     0.323 C 
ATOM     27  H   UNL     1      27.289  35.405  13.455  1.00  0.00     0.171 HD
ATOM     28  O   UNL     1      27.350  32.185  13.817  1.00  0.00    -0.248 OA
ATOM     29  N   UNL     1      28.232  33.377  12.004  1.00  0.00    -0.308 N 
ATOM     30  H   UNL     1      28.109  34.239  11.426  1.00  0.00     0.171 HD
BRANCH  29  31
ATOM     31  C   UNL     1      29.020  32.305  11.460  1.00  0.00     0.042 A 
ATOM     32  C   UNL     1      28.385  31.121  11.053  1.00  0.00     0.026 A 
ATOM     33  C   UNL     1      30.409  32.437  11.268  1.00  0.00     0.026 A 
ATOM     34  C   UNL     1      29.127  30.072  10.499  1.00  0.00     0.002 A 
ATOM     35  C   UNL     1      31.147  31.386  10.715  1.00  0.00     0.002 A 
ATOM     36  C   UNL     1      30.508  30.204  10.335  1.00  0.00     0.000 A 
ENDBRANCH  29  31
ENDBRANCH   7  25
TORSDOF 5
ENDMDL
MODEL 14
REMARK VINA RESULT:    -8.038      4.072      9.876
REMARK INTER + INTRA:         -11.395
REMARK INTER:                 -11.297
REMARK INTRA:                  -0.098
REMARK UNBOUND:                -1.008
REMARK SMILES CCn1c(=O)c(-c2cc(NC(=O)Nc3ccccc3)c(F)cc2Br)cc2cnc(NC)cc21
REMARK SMILES IDX 7 1 23 2 24 3 22 4 20 5 21 6 9 7 8 8 6 9 3 10 4 11 33 12
REMARK SMILES IDX 5 13 26 14 32 15 25 16 27 17 29 18 28 19 2 20 1 21 30 22
REMARK SMILES IDX 31 23 10 25 11 26 12 28 13 29 14 31 15 32 19 33 16 34 18 35
REMARK SMILES IDX 17 36
REMARK H PARENT 30 24 10 27 13 30
REMARK Flexibility Score: inf
ROOT
ATOM      1  C   UNL     1      23.553  35.206  13.791  1.00  0.00     0.004 A 
ATOM      2  C   UNL     1      24.041  36.263  12.998  1.00  0.00     0.029 A 
ATOM      3  Br  UNL     1      22.872  37.370  11.953  1.00  0.00    -0.050 Br
ATOM      4  C   UNL     1      25.408  36.559  13.001  1.00  0.00     0.057 A 
ATOM      5  C   UNL     1      26.295  35.812  13.780  1.00  0.00     0.147 A 
ATOM      6  F   UNL     1      27.605  36.166  13.808  1.00  0.00    -0.205 F 
ATOM      7  C   UNL     1      25.820  34.745  14.562  1.00  0.00     0.079 A 
ATOM      8  C   UNL     1      24.447  34.465  14.582  1.00  0.00     0.039 A 
ENDROOT
BRANCH   1   9
ATOM      9  C   UNL     1      22.114  34.864  13.820  1.00  0.00     0.049 A 
ATOM     10  N   UNL     1      20.247  33.524  13.055  1.00  0.00    -0.308 N 
ATOM     11  C   UNL     1      21.590  33.837  13.018  1.00  0.00     0.258 A 
ATOM     12  C   UNL     1      19.387  34.258  13.855  1.00  0.00     0.056 A 
ATOM     13  O   UNL     1      22.375  33.199  12.261  1.00  0.00    -0.269 OA
ATOM     14  C   UNL     1      19.903  35.276  14.692  1.00  0.00     0.018 A 
ATOM     15  C   UNL     1      17.986  34.041  13.872  1.00  0.00     0.073 A 
ATOM     16  C   UNL     1      21.266  35.561  14.676  1.00  0.00     0.026 A 
ATOM     17  C   UNL     1      19.042  36.005  15.522  1.00  0.00     0.123 A 
ATOM     18  C   UNL     1      17.158  34.801  14.718  1.00  0.00     0.127 A 
ATOM     19  N   UNL     1      17.711  35.752  15.515  1.00  0.00    -0.239 NA
BRANCH  10  20
ATOM     20  C   UNL     1      19.762  32.414  12.200  1.00  0.00     0.122 C 
ATOM     21  C   UNL     1      19.114  32.956  10.929  1.00  0.00     0.028 C 
ENDBRANCH  10  20
BRANCH  18  22
ATOM     22  N   UNL     1      15.734  34.606  14.764  1.00  0.00    -0.373 N 
ATOM     23  C   UNL     1      14.973  34.456  16.000  1.00  0.00     0.141 C 
ATOM     24  H   UNL     1      15.211  34.571  13.860  1.00  0.00     0.161 HD
ENDBRANCH  18  22
ENDBRANCH   1   9
BRANCH   7  25
ATOM     25  N   UNL     1      26.706  33.970  15.388  1.00  0.00    -0.305 N 
ATOM     26  C   UNL     1      27.741  33.127  14.863  1.00  0.00     0.323 C 
ATOM     27  H   UNL     1      26.496  33.905  16.410  1.00  0.00     0.171 HD
ATOM     28  O   UNL     1      27.823  32.921  13.622  1.00  0.00    -0.248 OA
ATOM     29  N   UNL     1      28.682  32.523  15.764  1.00  0.00    -0.308 N 
ATOM     30  H   UNL     1      28.749  32.919  16.728  1.00  0.00     0.171 HD
BRANCH  29  31
ATOM     31  C   UNL     1      29.621  31.502  15.386  1.00  0.00     0.042 A 
ATOM     32  C   UNL     1      30.391  30.874  16.378  1.00  0.00     0.026 A 
ATOM     33  C   UNL     1      29.745  31.073  14.050  1.00  0.00     0.026 A 
ATOM     34  C   UNL     1      31.295  29.862  16.038  1.00  0.00     0.002 A 
ATOM     35  C   UNL     1      30.649  30.062  13.715  1.00  0.00     0.002 A 
ATOM     36  C   UNL     1      31.427  29.459  14.707  1.00  0.00     0.000 A 
ENDBRANCH  29  31
ENDBRANCH   7  25
TORSDOF 5
ENDMDL
