MODEL 1
REMARK VINA RESULT:   -10.075      0.000      0.000
REMARK INTER + INTRA:         -12.150
REMARK INTER:                 -11.842
REMARK INTRA:                  -0.308
REMARK UNBOUND:                -0.308
REMARK SMILES CN1CCN(c2ccc(Nc3ncc4cc5n(c4n3)C3(CCCCC3)CNC5=O)nc2)CC1
REMARK SMILES IDX 6 1 31 2 30 3 9 4 8 5 7 6 5 7 1 8 2 9 3 10 33 11 4 12 32 13
REMARK SMILES IDX 10 14 11 16 19 17 12 18 18 19 13 20 14 21 17 22 15 23 16 24
REMARK SMILES IDX 20 25 28 26 21 27 26 28 25 29 27 30 29 31 22 32 24 33 23 35
REMARK H PARENT 10 15 27 34
REMARK Flexibility Score: inf
ROOT
ATOM      1  C   UNL     1      11.929  15.012   8.496  1.00  0.00     0.055 A 
ATOM      2  C   UNL     1      10.765  14.383   8.965  1.00  0.00     0.139 A 
ATOM      3  N   UNL     1      10.822  13.554  10.041  1.00  0.00    -0.237 NA
ATOM      4  C   UNL     1      11.987  13.286  10.690  1.00  0.00     0.132 A 
ATOM      5  C   UNL     1      13.169  13.914  10.266  1.00  0.00     0.049 A 
ATOM      6  C   UNL     1      13.137  14.769   9.163  1.00  0.00     0.031 A 
ENDROOT
BRANCH   1   7
ATOM      7  N   UNL     1      11.890  15.883   7.350  1.00  0.00    -0.368 N 
ATOM      8  C   UNL     1      12.076  18.650   5.023  1.00  0.00     0.105 C 
ATOM      9  N   UNL     1      11.687  17.240   4.847  1.00  0.00    -0.303 NA
ATOM     10  C   UNL     1      10.472  16.888   5.611  1.00  0.00     0.105 C 
ATOM     11  C   UNL     1      12.801  16.305   5.109  1.00  0.00     0.105 C 
ATOM     12  C   UNL     1      10.735  16.753   7.119  1.00  0.00     0.132 C 
ATOM     13  C   UNL     1      13.119  16.168   6.603  1.00  0.00     0.132 C 
ENDBRANCH   1   7
BRANCH   4  14
ATOM     14  N   UNL     1      11.964  12.417  11.832  1.00  0.00    -0.309 N 
ATOM     15  H   UNL     1      12.590  11.579  11.816  1.00  0.00     0.171 HD
BRANCH  14  16
ATOM     16  C   UNL     1      11.254  12.691  13.048  1.00  0.00     0.230 A 
ATOM     17  N   UNL     1      11.435  11.874  14.128  1.00  0.00    -0.194 NA
ATOM     18  N   UNL     1      10.449  13.798  13.155  1.00  0.00    -0.221 NA
ATOM     19  C   UNL     1      10.775  12.146  15.279  1.00  0.00     0.146 A 
ATOM     20  C   UNL     1       9.800  14.099  14.316  1.00  0.00     0.127 A 
ATOM     21  C   UNL     1       9.976  13.247  15.396  1.00  0.00     0.038 A 
ATOM     22  N   UNL     1      10.877  11.487  16.457  1.00  0.00    -0.313 N 
ATOM     23  C   UNL     1       9.561  13.336  16.704  1.00  0.00     0.045 A 
ATOM     24  C   UNL     1      10.160  12.245  17.325  1.00  0.00     0.109 A 
ATOM     25  C   UNL     1      11.773  10.372  16.866  1.00  0.00     0.064 C 
ATOM     26  C   UNL     1      10.192  11.972  18.758  1.00  0.00     0.268 C 
ATOM     27  C   UNL     1      13.210  10.937  17.031  1.00  0.00     0.031 C 
ATOM     28  C   UNL     1      11.247   9.775  18.220  1.00  0.00     0.145 C 
ATOM     29  C   UNL     1      11.772   9.242  15.791  1.00  0.00     0.031 C 
ATOM     30  N   UNL     1      10.916  10.822  19.189  1.00  0.00    -0.348 N 
ATOM     31  O   UNL     1       9.646  12.742  19.592  1.00  0.00    -0.268 OA
ATOM     32  C   UNL     1      14.275   9.853  17.261  1.00  0.00     0.002 C 
ATOM     33  C   UNL     1      12.822   8.158  16.073  1.00  0.00     0.002 C 
ATOM     34  H   UNL     1      11.133  10.686  20.202  1.00  0.00     0.163 HD
ATOM     35  C   UNL     1      14.221   8.772  16.178  1.00  0.00     0.000 C 
ENDBRANCH  14  16
ENDBRANCH   4  14
TORSDOF 3
ENDMDL
MODEL 2
REMARK VINA RESULT:    -9.690      1.682      1.893
REMARK INTER + INTRA:         -11.698
REMARK INTER:                 -11.213
REMARK INTRA:                  -0.485
REMARK UNBOUND:                -0.308
REMARK SMILES CN1CCN(c2ccc(Nc3ncc4cc5n(c4n3)C3(CCCCC3)CNC5=O)nc2)CC1
REMARK SMILES IDX 6 1 31 2 30 3 9 4 8 5 7 6 5 7 1 8 2 9 3 10 33 11 4 12 32 13
REMARK SMILES IDX 10 14 11 16 19 17 12 18 18 19 13 20 14 21 17 22 15 23 16 24
REMARK SMILES IDX 20 25 28 26 21 27 26 28 25 29 27 30 29 31 22 32 24 33 23 35
REMARK H PARENT 10 15 27 34
REMARK Flexibility Score: inf
ROOT
ATOM      1  C   UNL     1      13.192  14.878   9.652  1.00  0.00     0.055 A 
ATOM      2  C   UNL     1      12.995  15.950  10.537  1.00  0.00     0.139 A 
ATOM      3  N   UNL     1      12.945  15.730  11.878  1.00  0.00    -0.237 NA
ATOM      4  C   UNL     1      13.064  14.485  12.413  1.00  0.00     0.132 A 
ATOM      5  C   UNL     1      13.285  13.389  11.563  1.00  0.00     0.049 A 
ATOM      6  C   UNL     1      13.339  13.590  10.183  1.00  0.00     0.031 A 
ENDROOT
BRANCH   1   7
ATOM      7  N   UNL     1      13.235  15.090   8.228  1.00  0.00    -0.368 N 
ATOM      8  C   UNL     1      13.462  16.432   4.875  1.00  0.00     0.105 C 
ATOM      9  N   UNL     1      13.278  15.059   5.375  1.00  0.00    -0.303 NA
ATOM     10  C   UNL     1      12.006  14.890   6.109  1.00  0.00     0.105 C 
ATOM     11  C   UNL     1      14.438  14.575   6.151  1.00  0.00     0.105 C 
ATOM     12  C   UNL     1      12.037  15.525   7.507  1.00  0.00     0.132 C 
ATOM     13  C   UNL     1      14.525  15.212   7.543  1.00  0.00     0.132 C 
ENDBRANCH   1   7
BRANCH   4  14
ATOM     14  N   UNL     1      13.022  14.333  13.840  1.00  0.00    -0.309 N 
ATOM     15  H   UNL     1      13.868  14.620  14.383  1.00  0.00     0.171 HD
BRANCH  14  16
ATOM     16  C   UNL     1      11.855  13.953  14.582  1.00  0.00     0.230 A 
ATOM     17  N   UNL     1      11.823  12.735  15.201  1.00  0.00    -0.194 NA
ATOM     18  N   UNL     1      10.803  14.823  14.731  1.00  0.00    -0.221 NA
ATOM     19  C   UNL     1      10.725  12.386  15.915  1.00  0.00     0.146 A 
ATOM     20  C   UNL     1       9.704  14.495  15.469  1.00  0.00     0.127 A 
ATOM     21  C   UNL     1       9.677  13.246  16.071  1.00  0.00     0.038 A 
ATOM     22  N   UNL     1      10.543  11.255  16.636  1.00  0.00    -0.313 N 
ATOM     23  C   UNL     1       8.786  12.679  16.950  1.00  0.00     0.045 A 
ATOM     24  C   UNL     1       9.372  11.464  17.291  1.00  0.00     0.109 A 
ATOM     25  C   UNL     1      11.480  10.140  16.938  1.00  0.00     0.064 C 
ATOM     26  C   UNL     1       8.926  10.547  18.335  1.00  0.00     0.268 C 
ATOM     27  C   UNL     1      12.533  10.650  17.959  1.00  0.00     0.031 C 
ATOM     28  C   UNL     1      10.658   8.940  17.532  1.00  0.00     0.145 C 
ATOM     29  C   UNL     1      12.196   9.657  15.640  1.00  0.00     0.031 C 
ATOM     30  N   UNL     1       9.712   9.379  18.559  1.00  0.00    -0.348 N 
ATOM     31  O   UNL     1       7.916  10.794  19.046  1.00  0.00    -0.268 OA
ATOM     32  C   UNL     1      13.679   9.656  18.209  1.00  0.00     0.002 C 
ATOM     33  C   UNL     1      13.309   8.638  15.924  1.00  0.00     0.002 C 
ATOM     34  H   UNL     1       9.552   8.793  19.410  1.00  0.00     0.163 HD
ATOM     35  C   UNL     1      14.339   9.216  16.899  1.00  0.00     0.000 C 
ENDBRANCH  14  16
ENDBRANCH   4  14
TORSDOF 3
ENDMDL
MODEL 3
REMARK VINA RESULT:    -9.503      3.139      5.833
REMARK INTER + INTRA:         -11.477
REMARK INTER:                 -10.727
REMARK INTRA:                  -0.750
REMARK UNBOUND:                -0.308
REMARK SMILES CN1CCN(c2ccc(Nc3ncc4cc5n(c4n3)C3(CCCCC3)CNC5=O)nc2)CC1
REMARK SMILES IDX 6 1 31 2 30 3 9 4 8 5 7 6 5 7 1 8 2 9 3 10 33 11 4 12 32 13
REMARK SMILES IDX 10 14 11 16 19 17 12 18 18 19 13 20 14 21 17 22 15 23 16 24
REMARK SMILES IDX 20 25 28 26 21 27 26 28 25 29 27 30 29 31 22 32 24 33 23 35
REMARK H PARENT 10 15 27 34
REMARK Flexibility Score: inf
ROOT
ATOM      1  C   UNL     1      12.376  14.283  14.512  1.00  0.00     0.055 A 
ATOM      2  C   UNL     1      11.266  14.007  15.325  1.00  0.00     0.139 A 
ATOM      3  N   UNL     1      11.366  14.109  16.678  1.00  0.00    -0.237 NA
ATOM      4  C   UNL     1      12.526  14.460  17.295  1.00  0.00     0.132 A 
ATOM      5  C   UNL     1      13.653  14.767  16.515  1.00  0.00     0.049 A 
ATOM      6  C   UNL     1      13.576  14.669  15.126  1.00  0.00     0.031 A 
ENDROOT
BRANCH   1   7
ATOM      7  N   UNL     1      12.293  14.168  13.079  1.00  0.00    -0.368 N 
ATOM      8  C   UNL     1      12.247  14.708   9.501  1.00  0.00     0.105 C 
ATOM      9  N   UNL     1      12.068  13.494  10.315  1.00  0.00    -0.303 NA
ATOM     10  C   UNL     1      10.866  13.559  11.172  1.00  0.00     0.105 C 
ATOM     11  C   UNL     1      13.280  13.138  11.081  1.00  0.00     0.105 C 
ATOM     12  C   UNL     1      11.046  14.490  12.381  1.00  0.00     0.132 C 
ATOM     13  C   UNL     1      13.516  14.066  12.278  1.00  0.00     0.132 C 
ENDBRANCH   1   7
BRANCH   4  14
ATOM     14  N   UNL     1      12.549  14.568  18.726  1.00  0.00    -0.309 N 
ATOM     15  H   UNL     1      12.177  15.447  19.152  1.00  0.00     0.171 HD
BRANCH  14  16
ATOM     16  C   UNL     1      12.912  13.502  19.615  1.00  0.00     0.230 A 
ATOM     17  N   UNL     1      12.844  12.210  19.174  1.00  0.00    -0.194 NA
ATOM     18  N   UNL     1      13.388  13.770  20.875  1.00  0.00    -0.221 NA
ATOM     19  C   UNL     1      13.203  11.207  20.012  1.00  0.00     0.146 A 
ATOM     20  C   UNL     1      13.779  12.772  21.718  1.00  0.00     0.127 A 
ATOM     21  C   UNL     1      13.681  11.466  21.264  1.00  0.00     0.038 A 
ATOM     22  N   UNL     1      13.255   9.885  19.730  1.00  0.00    -0.313 N 
ATOM     23  C   UNL     1      14.092  10.276  21.818  1.00  0.00     0.045 A 
ATOM     24  C   UNL     1      13.833   9.334  20.828  1.00  0.00     0.109 A 
ATOM     25  C   UNL     1      13.037   9.160  18.449  1.00  0.00     0.064 C 
ATOM     26  C   UNL     1      14.248   7.935  20.831  1.00  0.00     0.268 C 
ATOM     27  C   UNL     1      14.256   9.428  17.525  1.00  0.00     0.031 C 
ATOM     28  C   UNL     1      12.895   7.627  18.757  1.00  0.00     0.145 C 
ATOM     29  C   UNL     1      11.731   9.651  17.754  1.00  0.00     0.031 C 
ATOM     30  N   UNL     1      13.927   7.155  19.682  1.00  0.00    -0.348 N 
ATOM     31  O   UNL     1      14.907   7.442  21.785  1.00  0.00    -0.268 OA
ATOM     32  C   UNL     1      14.071   8.898  16.093  1.00  0.00     0.002 C 
ATOM     33  C   UNL     1      11.560   9.072  16.342  1.00  0.00     0.002 C 
ATOM     34  H   UNL     1      14.361   6.214  19.547  1.00  0.00     0.163 HD
ATOM     35  C   UNL     1      12.771   9.410  15.467  1.00  0.00     0.000 C 
ENDBRANCH  14  16
ENDBRANCH   4  14
TORSDOF 3
ENDMDL
MODEL 4
REMARK VINA RESULT:    -9.372      6.395      7.622
REMARK INTER + INTRA:         -11.324
REMARK INTER:                 -10.751
REMARK INTRA:                  -0.573
REMARK UNBOUND:                -0.308
REMARK SMILES CN1CCN(c2ccc(Nc3ncc4cc5n(c4n3)C3(CCCCC3)CNC5=O)nc2)CC1
REMARK SMILES IDX 6 1 31 2 30 3 9 4 8 5 7 6 5 7 1 8 2 9 3 10 33 11 4 12 32 13
REMARK SMILES IDX 10 14 11 16 19 17 12 18 18 19 13 20 14 21 17 22 15 23 16 24
REMARK SMILES IDX 20 25 28 26 21 27 26 28 25 29 27 30 29 31 22 32 24 33 23 35
REMARK H PARENT 10 15 27 34
REMARK Flexibility Score: inf
ROOT
ATOM      1  C   UNL     1      17.086  15.844  15.925  1.00  0.00     0.055 A 
ATOM      2  C   UNL     1      17.342  15.107  17.092  1.00  0.00     0.139 A 
ATOM      3  N   UNL     1      16.318  14.742  17.910  1.00  0.00    -0.237 NA
ATOM      4  C   UNL     1      15.026  15.081  17.650  1.00  0.00     0.132 A 
ATOM      5  C   UNL     1      14.726  15.798  16.480  1.00  0.00     0.049 A 
ATOM      6  C   UNL     1      15.760  16.185  15.626  1.00  0.00     0.031 A 
ENDROOT
BRANCH   1   7
ATOM      7  N   UNL     1      18.159  16.250  15.054  1.00  0.00    -0.368 N 
ATOM      8  C   UNL     1      20.634  18.047  13.120  1.00  0.00     0.105 C 
ATOM      9  N   UNL     1      20.353  16.609  13.265  1.00  0.00    -0.303 NA
ATOM     10  C   UNL     1      19.017  16.238  12.751  1.00  0.00     0.105 C 
ATOM     11  C   UNL     1      20.576  16.120  14.641  1.00  0.00     0.105 C 
ATOM     12  C   UNL     1      17.878  16.678  13.682  1.00  0.00     0.132 C 
ATOM     13  C   UNL     1      19.476  16.568  15.612  1.00  0.00     0.132 C 
ENDBRANCH   1   7
BRANCH   4  14
ATOM     14  N   UNL     1      13.997  14.642  18.548  1.00  0.00    -0.309 N 
ATOM     15  H   UNL     1      13.095  15.170  18.548  1.00  0.00     0.171 HD
BRANCH  14  16
ATOM     16  C   UNL     1      14.066  13.447  19.340  1.00  0.00     0.230 A 
ATOM     17  N   UNL     1      13.573  12.278  18.832  1.00  0.00    -0.194 NA
ATOM     18  N   UNL     1      14.678  13.455  20.569  1.00  0.00    -0.221 NA
ATOM     19  C   UNL     1      13.655  11.149  19.577  1.00  0.00     0.146 A 
ATOM     20  C   UNL     1      14.791  12.320  21.317  1.00  0.00     0.127 A 
ATOM     21  C   UNL     1      14.265  11.147  20.798  1.00  0.00     0.038 A 
ATOM     22  N   UNL     1      13.277   9.901  19.215  1.00  0.00    -0.313 N 
ATOM     23  C   UNL     1      14.320   9.848  21.245  1.00  0.00     0.045 A 
ATOM     24  C   UNL     1      13.721   9.113  20.227  1.00  0.00     0.109 A 
ATOM     25  C   UNL     1      12.767   9.384  17.917  1.00  0.00     0.064 C 
ATOM     26  C   UNL     1      13.683   7.659  20.114  1.00  0.00     0.268 C 
ATOM     27  C   UNL     1      13.950   9.342  16.912  1.00  0.00     0.031 C 
ATOM     28  C   UNL     1      12.176   7.946  18.146  1.00  0.00     0.145 C 
ATOM     29  C   UNL     1      11.637  10.304  17.363  1.00  0.00     0.031 C 
ATOM     30  N   UNL     1      13.065   7.109  18.952  1.00  0.00    -0.348 N 
ATOM     31  O   UNL     1      14.213   6.912  20.979  1.00  0.00    -0.268 OA
ATOM     32  C   UNL     1      13.523   9.011  15.472  1.00  0.00     0.002 C 
ATOM     33  C   UNL     1      11.210   9.921  15.938  1.00  0.00     0.002 C 
ATOM     34  H   UNL     1      13.178   6.095  18.727  1.00  0.00     0.163 HD
ATOM     35  C   UNL     1      12.409   9.944  14.987  1.00  0.00     0.000 C 
ENDBRANCH  14  16
ENDBRANCH   4  14
TORSDOF 3
ENDMDL
MODEL 5
REMARK VINA RESULT:    -9.187      1.589      1.815
REMARK INTER + INTRA:         -11.106
REMARK INTER:                 -10.667
REMARK INTRA:                  -0.439
REMARK UNBOUND:                -0.308
REMARK SMILES CN1CCN(c2ccc(Nc3ncc4cc5n(c4n3)C3(CCCCC3)CNC5=O)nc2)CC1
REMARK SMILES IDX 6 1 31 2 30 3 9 4 8 5 7 6 5 7 1 8 2 9 3 10 33 11 4 12 32 13
REMARK SMILES IDX 10 14 11 16 19 17 12 18 18 19 13 20 14 21 17 22 15 23 16 24
REMARK SMILES IDX 20 25 28 26 21 27 26 28 25 29 27 30 29 31 22 32 24 33 23 35
REMARK H PARENT 10 15 27 34
REMARK Flexibility Score: inf
ROOT
ATOM      1  C   UNL     1      10.492  15.573   9.617  1.00  0.00     0.055 A 
ATOM      2  C   UNL     1      11.083  16.187  10.733  1.00  0.00     0.139 A 
ATOM      3  N   UNL     1      11.421  15.446  11.822  1.00  0.00    -0.237 NA
ATOM      4  C   UNL     1      11.194  14.106  11.886  1.00  0.00     0.132 A 
ATOM      5  C   UNL     1      10.626  13.451  10.782  1.00  0.00     0.049 A 
ATOM      6  C   UNL     1      10.269  14.190   9.653  1.00  0.00     0.031 A 
ENDROOT
BRANCH   1   7
ATOM      7  N   UNL     1      10.115  16.344   8.461  1.00  0.00    -0.368 N 
ATOM      8  C   UNL     1       9.654  18.874   5.914  1.00  0.00     0.105 C 
ATOM      9  N   UNL     1       9.149  17.496   6.034  1.00  0.00    -0.303 NA
ATOM     10  C   UNL     1       8.249  17.322   7.194  1.00  0.00     0.105 C 
ATOM     11  C   UNL     1      10.230  16.488   6.012  1.00  0.00     0.105 C 
ATOM     12  C   UNL     1       9.002  17.293   8.533  1.00  0.00     0.132 C 
ATOM     13  C   UNL     1      11.030  16.451   7.320  1.00  0.00     0.132 C 
ENDBRANCH   1   7
BRANCH   4  14
ATOM     14  N   UNL     1      11.599  13.387  13.061  1.00  0.00    -0.309 N 
ATOM     15  H   UNL     1      12.592  13.067  13.116  1.00  0.00     0.171 HD
BRANCH  14  16
ATOM     16  C   UNL     1      10.777  13.201  14.223  1.00  0.00     0.230 A 
ATOM     17  N   UNL     1      11.035  12.157  15.065  1.00  0.00    -0.194 NA
ATOM     18  N   UNL     1       9.783  14.098  14.529  1.00  0.00    -0.221 NA
ATOM     19  C   UNL     1      10.266  11.995  16.170  1.00  0.00     0.146 A 
ATOM     20  C   UNL     1       9.020  13.962  15.652  1.00  0.00     0.127 A 
ATOM     21  C   UNL     1       9.279  12.883  16.484  1.00  0.00     0.038 A 
ATOM     22  N   UNL     1      10.412  11.060  17.137  1.00  0.00    -0.313 N 
ATOM     23  C   UNL     1       8.775  12.543  17.716  1.00  0.00     0.045 A 
ATOM     24  C   UNL     1       9.519  11.429  18.092  1.00  0.00     0.109 A 
ATOM     25  C   UNL     1      11.466  10.029  17.335  1.00  0.00     0.064 C 
ATOM     26  C   UNL     1       9.512  10.779  19.398  1.00  0.00     0.268 C 
ATOM     27  C   UNL     1      12.766  10.742  17.795  1.00  0.00     0.031 C 
ATOM     28  C   UNL     1      10.972   9.007  18.421  1.00  0.00     0.145 C 
ATOM     29  C   UNL     1      11.732   9.253  16.008  1.00  0.00     0.031 C 
ATOM     30  N   UNL     1      10.401   9.681  19.589  1.00  0.00    -0.348 N 
ATOM     31  O   UNL     1       8.787  11.196  20.341  1.00  0.00    -0.268 OA
ATOM     32  C   UNL     1      13.991   9.815  17.847  1.00  0.00     0.002 C 
ATOM     33  C   UNL     1      12.939   8.309  16.108  1.00  0.00     0.002 C 
ATOM     34  H   UNL     1      10.575   9.306  20.548  1.00  0.00     0.163 HD
ATOM     35  C   UNL     1      14.197   9.079  16.520  1.00  0.00     0.000 C 
ENDBRANCH  14  16
ENDBRANCH   4  14
TORSDOF 3
ENDMDL
MODEL 6
REMARK VINA RESULT:    -9.053      5.190      8.275
REMARK INTER + INTRA:         -10.949
REMARK INTER:                 -10.319
REMARK INTRA:                  -0.630
REMARK UNBOUND:                -0.308
REMARK SMILES CN1CCN(c2ccc(Nc3ncc4cc5n(c4n3)C3(CCCCC3)CNC5=O)nc2)CC1
REMARK SMILES IDX 6 1 31 2 30 3 9 4 8 5 7 6 5 7 1 8 2 9 3 10 33 11 4 12 32 13
REMARK SMILES IDX 10 14 11 16 19 17 12 18 18 19 13 20 14 21 17 22 15 23 16 24
REMARK SMILES IDX 20 25 28 26 21 27 26 28 25 29 27 30 29 31 22 32 24 33 23 35
REMARK H PARENT 10 15 27 34
REMARK Flexibility Score: inf
ROOT
ATOM      1  C   UNL     1       6.643  16.295  16.752  1.00  0.00     0.055 A 
ATOM      2  C   UNL     1       8.034  16.390  16.919  1.00  0.00     0.139 A 
ATOM      3  N   UNL     1       8.869  15.668  16.125  1.00  0.00    -0.237 NA
ATOM      4  C   UNL     1       8.406  14.824  15.163  1.00  0.00     0.132 A 
ATOM      5  C   UNL     1       7.023  14.718  14.951  1.00  0.00     0.049 A 
ATOM      6  C   UNL     1       6.145  15.448  15.753  1.00  0.00     0.031 A 
ENDROOT
BRANCH   1   7
ATOM      7  N   UNL     1       5.743  17.043  17.592  1.00  0.00    -0.368 N 
ATOM      8  C   UNL     1       3.745  19.575  19.232  1.00  0.00     0.105 C 
ATOM      9  N   UNL     1       3.855  18.121  19.440  1.00  0.00    -0.303 NA
ATOM     10  C   UNL     1       5.202  17.715  19.893  1.00  0.00     0.105 C 
ATOM     11  C   UNL     1       3.402  17.342  18.270  1.00  0.00     0.105 C 
ATOM     12  C   UNL     1       6.246  17.756  18.768  1.00  0.00     0.132 C 
ATOM     13  C   UNL     1       4.403  17.385  17.108  1.00  0.00     0.132 C 
ENDBRANCH   1   7
BRANCH   4  14
ATOM     14  N   UNL     1       9.350  14.111  14.351  1.00  0.00    -0.309 N 
ATOM     15  H   UNL     1       9.245  14.179  13.313  1.00  0.00     0.171 HD
BRANCH  14  16
ATOM     16  C   UNL     1      10.507  13.430  14.857  1.00  0.00     0.230 A 
ATOM     17  N   UNL     1      10.424  12.761  16.045  1.00  0.00    -0.194 NA
ATOM     18  N   UNL     1      11.671  13.390  14.130  1.00  0.00    -0.221 NA
ATOM     19  C   UNL     1      11.514  12.106  16.512  1.00  0.00     0.146 A 
ATOM     20  C   UNL     1      12.768  12.711  14.574  1.00  0.00     0.127 A 
ATOM     21  C   UNL     1      12.674  12.057  15.794  1.00  0.00     0.038 A 
ATOM     22  N   UNL     1      11.597  11.348  17.630  1.00  0.00    -0.313 N 
ATOM     23  C   UNL     1      13.544  11.214  16.444  1.00  0.00     0.045 A 
ATOM     24  C   UNL     1      12.829  10.782  17.557  1.00  0.00     0.109 A 
ATOM     25  C   UNL     1      10.547  10.937  18.600  1.00  0.00     0.064 C 
ATOM     26  C   UNL     1      13.224   9.730  18.487  1.00  0.00     0.268 C 
ATOM     27  C   UNL     1       9.644   9.873  17.918  1.00  0.00     0.031 C 
ATOM     28  C   UNL     1      11.245  10.345  19.876  1.00  0.00     0.145 C 
ATOM     29  C   UNL     1       9.684  12.163  19.029  1.00  0.00     0.031 C 
ATOM     30  N   UNL     1      12.310   9.402  19.531  1.00  0.00    -0.348 N 
ATOM     31  O   UNL     1      14.306   9.098  18.352  1.00  0.00    -0.268 OA
ATOM     32  C   UNL     1       8.399   9.505  18.741  1.00  0.00     0.002 C 
ATOM     33  C   UNL     1       8.470  11.762  19.880  1.00  0.00     0.002 C 
ATOM     34  H   UNL     1      12.452   8.539  20.102  1.00  0.00     0.163 HD
ATOM     35  C   UNL     1       7.597  10.748  19.135  1.00  0.00     0.000 C 
ENDBRANCH  14  16
ENDBRANCH   4  14
TORSDOF 3
ENDMDL
MODEL 7
REMARK VINA RESULT:    -9.037      3.962      5.264
REMARK INTER + INTRA:         -10.930
REMARK INTER:                 -10.283
REMARK INTRA:                  -0.646
REMARK UNBOUND:                -0.308
REMARK SMILES CN1CCN(c2ccc(Nc3ncc4cc5n(c4n3)C3(CCCCC3)CNC5=O)nc2)CC1
REMARK SMILES IDX 6 1 31 2 30 3 9 4 8 5 7 6 5 7 1 8 2 9 3 10 33 11 4 12 32 13
REMARK SMILES IDX 10 14 11 16 19 17 12 18 18 19 13 20 14 21 17 22 15 23 16 24
REMARK SMILES IDX 20 25 28 26 21 27 26 28 25 29 27 30 29 31 22 32 24 33 23 35
REMARK H PARENT 10 15 27 34
REMARK Flexibility Score: inf
ROOT
ATOM      1  C   UNL     1      14.801  15.762  13.815  1.00  0.00     0.055 A 
ATOM      2  C   UNL     1      13.886  15.870  14.874  1.00  0.00     0.139 A 
ATOM      3  N   UNL     1      12.652  15.308  14.773  1.00  0.00    -0.237 NA
ATOM      4  C   UNL     1      12.248  14.642  13.657  1.00  0.00     0.132 A 
ATOM      5  C   UNL     1      13.141  14.492  12.585  1.00  0.00     0.049 A 
ATOM      6  C   UNL     1      14.413  15.061  12.665  1.00  0.00     0.031 A 
ENDROOT
BRANCH   1   7
ATOM      7  N   UNL     1      16.107  16.361  13.900  1.00  0.00    -0.368 N 
ATOM      8  C   UNL     1      19.038  18.311  14.742  1.00  0.00     0.105 C 
ATOM      9  N   UNL     1      18.812  17.256  13.739  1.00  0.00    -0.303 NA
ATOM     10  C   UNL     1      17.827  17.653  12.711  1.00  0.00     0.105 C 
ATOM     11  C   UNL     1      18.486  15.951  14.348  1.00  0.00     0.105 C 
ATOM     12  C   UNL     1      16.383  17.635  13.233  1.00  0.00     0.132 C 
ATOM     13  C   UNL     1      17.061  15.902  14.913  1.00  0.00     0.132 C 
ENDBRANCH   1   7
BRANCH   4  14
ATOM     14  N   UNL     1      10.937  14.057  13.632  1.00  0.00    -0.309 N 
ATOM     15  H   UNL     1      10.538  13.802  12.701  1.00  0.00     0.171 HD
BRANCH  14  16
ATOM     16  C   UNL     1      10.199  13.668  14.799  1.00  0.00     0.230 A 
ATOM     17  N   UNL     1      10.573  12.548  15.486  1.00  0.00    -0.194 NA
ATOM     18  N   UNL     1       9.167  14.444  15.267  1.00  0.00    -0.221 NA
ATOM     19  C   UNL     1       9.883  12.193  16.597  1.00  0.00     0.146 A 
ATOM     20  C   UNL     1       8.482  14.114  16.399  1.00  0.00     0.127 A 
ATOM     21  C   UNL     1       8.859  12.961  17.071  1.00  0.00     0.038 A 
ATOM     22  N   UNL     1      10.146  11.158  17.428  1.00  0.00    -0.313 N 
ATOM     23  C   UNL     1       8.451  12.433  18.273  1.00  0.00     0.045 A 
ATOM     24  C   UNL     1       9.288  11.338  18.465  1.00  0.00     0.109 A 
ATOM     25  C   UNL     1      11.275  10.189  17.438  1.00  0.00     0.064 C 
ATOM     26  C   UNL     1       9.399  10.532  19.675  1.00  0.00     0.268 C 
ATOM     27  C   UNL     1      12.549  10.932  17.923  1.00  0.00     0.031 C 
ATOM     28  C   UNL     1      10.913   9.007  18.407  1.00  0.00     0.145 C 
ATOM     29  C   UNL     1      11.514   9.608  16.012  1.00  0.00     0.031 C 
ATOM     30  N   UNL     1      10.368   9.486  19.679  1.00  0.00    -0.348 N 
ATOM     31  O   UNL     1       8.704  10.773  20.698  1.00  0.00    -0.268 OA
ATOM     32  C   UNL     1      13.834  10.097  17.794  1.00  0.00     0.002 C 
ATOM     33  C   UNL     1      12.784   8.749  15.930  1.00  0.00     0.002 C 
ATOM     34  H   UNL     1      10.622   9.008  20.572  1.00  0.00     0.163 HD
ATOM     35  C   UNL     1      14.011   9.551  16.375  1.00  0.00     0.000 C 
ENDBRANCH  14  16
ENDBRANCH   4  14
TORSDOF 3
ENDMDL
MODEL 8
REMARK VINA RESULT:    -8.966      4.781      6.495
REMARK INTER + INTRA:         -10.847
REMARK INTER:                 -10.332
REMARK INTRA:                  -0.515
REMARK UNBOUND:                -0.308
REMARK SMILES CN1CCN(c2ccc(Nc3ncc4cc5n(c4n3)C3(CCCCC3)CNC5=O)nc2)CC1
REMARK SMILES IDX 6 1 31 2 30 3 9 4 8 5 7 6 5 7 1 8 2 9 3 10 33 11 4 12 32 13
REMARK SMILES IDX 10 14 11 16 19 17 12 18 18 19 13 20 14 21 17 22 15 23 16 24
REMARK SMILES IDX 20 25 28 26 21 27 26 28 25 29 27 30 29 31 22 32 24 33 23 35
REMARK H PARENT 10 15 27 34
REMARK Flexibility Score: inf
ROOT
ATOM      1  C   UNL     1       9.439  14.106  14.557  1.00  0.00     0.055 A 
ATOM      2  C   UNL     1       9.663  13.243  15.642  1.00  0.00     0.139 A 
ATOM      3  N   UNL     1      10.523  12.197  15.518  1.00  0.00    -0.237 NA
ATOM      4  C   UNL     1      11.181  11.933  14.357  1.00  0.00     0.132 A 
ATOM      5  C   UNL     1      11.001  12.785  13.256  1.00  0.00     0.049 A 
ATOM      6  C   UNL     1      10.123  13.865  13.358  1.00  0.00     0.031 A 
ENDROOT
BRANCH   1   7
ATOM      7  N   UNL     1       8.522  15.211  14.666  1.00  0.00    -0.368 N 
ATOM      8  C   UNL     1       6.853  18.343  15.374  1.00  0.00     0.105 C 
ATOM      9  N   UNL     1       6.430  17.151  14.620  1.00  0.00    -0.303 NA
ATOM     10  C   UNL     1       6.321  15.949  15.474  1.00  0.00     0.105 C 
ATOM     11  C   UNL     1       7.260  16.910  13.422  1.00  0.00     0.105 C 
ATOM     12  C   UNL     1       7.690  15.369  15.861  1.00  0.00     0.132 C 
ATOM     13  C   UNL     1       8.650  16.361  13.767  1.00  0.00     0.132 C 
ENDBRANCH   1   7
BRANCH   4  14
ATOM     14  N   UNL     1      12.089  10.822  14.308  1.00  0.00    -0.309 N 
ATOM     15  H   UNL     1      12.725  10.752  13.482  1.00  0.00     0.171 HD
BRANCH  14  16
ATOM     16  C   UNL     1      12.284   9.886  15.377  1.00  0.00     0.230 A 
ATOM     17  N   UNL     1      12.867  10.307  16.539  1.00  0.00    -0.194 NA
ATOM     18  N   UNL     1      11.833   8.593  15.269  1.00  0.00    -0.221 NA
ATOM     19  C   UNL     1      13.035   9.423  17.552  1.00  0.00     0.146 A 
ATOM     20  C   UNL     1      11.970   7.700  16.291  1.00  0.00     0.127 A 
ATOM     21  C   UNL     1      12.585   8.138  17.454  1.00  0.00     0.038 A 
ATOM     22  N   UNL     1      13.535   9.675  18.784  1.00  0.00    -0.313 N 
ATOM     23  C   UNL     1      12.766   7.528  18.673  1.00  0.00     0.045 A 
ATOM     24  C   UNL     1      13.331   8.520  19.468  1.00  0.00     0.109 A 
ATOM     25  C   UNL     1      13.947  10.957  19.416  1.00  0.00     0.064 C 
ATOM     26  C   UNL     1      13.556   8.455  20.908  1.00  0.00     0.268 C 
ATOM     27  C   UNL     1      12.667  11.773  19.743  1.00  0.00     0.031 C 
ATOM     28  C   UNL     1      14.756  10.636  20.724  1.00  0.00     0.145 C 
ATOM     29  C   UNL     1      14.862  11.775  18.455  1.00  0.00     0.031 C 
ATOM     30  N   UNL     1      14.096   9.614  21.539  1.00  0.00    -0.348 N 
ATOM     31  O   UNL     1      13.245   7.438  21.582  1.00  0.00    -0.268 OA
ATOM     32  C   UNL     1      12.956  13.206  20.221  1.00  0.00     0.002 C 
ATOM     33  C   UNL     1      15.161  13.186  18.982  1.00  0.00     0.002 C 
ATOM     34  H   UNL     1      14.098   9.692  22.581  1.00  0.00     0.163 HD
ATOM     35  C   UNL     1      13.861  13.955  19.240  1.00  0.00     0.000 C 
ENDBRANCH  14  16
ENDBRANCH   4  14
TORSDOF 3
ENDMDL
MODEL 9
REMARK VINA RESULT:    -8.928      3.841      9.300
REMARK INTER + INTRA:         -10.802
REMARK INTER:                 -10.038
REMARK INTRA:                  -0.765
REMARK UNBOUND:                -0.308
REMARK SMILES CN1CCN(c2ccc(Nc3ncc4cc5n(c4n3)C3(CCCCC3)CNC5=O)nc2)CC1
REMARK SMILES IDX 6 1 31 2 30 3 9 4 8 5 7 6 5 7 1 8 2 9 3 10 33 11 4 12 32 13
REMARK SMILES IDX 10 14 11 16 19 17 12 18 18 19 13 20 14 21 17 22 15 23 16 24
REMARK SMILES IDX 20 25 28 26 21 27 26 28 25 29 27 30 29 31 22 32 24 33 23 35
REMARK H PARENT 10 15 27 34
REMARK Flexibility Score: inf
ROOT
ATOM      1  C   UNL     1      12.702  10.504  17.241  1.00  0.00     0.055 A 
ATOM      2  C   UNL     1      11.965   9.806  16.271  1.00  0.00     0.139 A 
ATOM      3  N   UNL     1      11.785  10.339  15.033  1.00  0.00    -0.237 NA
ATOM      4  C   UNL     1      12.286  11.556  14.688  1.00  0.00     0.132 A 
ATOM      5  C   UNL     1      13.048  12.276  15.622  1.00  0.00     0.049 A 
ATOM      6  C   UNL     1      13.246  11.750  16.900  1.00  0.00     0.031 A 
ENDROOT
BRANCH   1   7
ATOM      7  N   UNL     1      12.891   9.961  18.561  1.00  0.00    -0.368 N 
ATOM      8  C   UNL     1      14.067   9.074  21.867  1.00  0.00     0.105 C 
ATOM      9  N   UNL     1      12.866   8.679  21.111  1.00  0.00    -0.303 NA
ATOM     10  C   UNL     1      13.193   7.914  19.889  1.00  0.00     0.105 C 
ATOM     11  C   UNL     1      11.968   9.818  20.831  1.00  0.00     0.105 C 
ATOM     12  C   UNL     1      13.758   8.798  18.767  1.00  0.00     0.132 C 
ATOM     13  C   UNL     1      12.513  10.746  19.739  1.00  0.00     0.132 C 
ENDBRANCH   1   7
BRANCH   4  14
ATOM     14  N   UNL     1      12.074  12.044  13.355  1.00  0.00    -0.309 N 
ATOM     15  H   UNL     1      12.671  11.650  12.593  1.00  0.00     0.171 HD
BRANCH  14  16
ATOM     16  C   UNL     1      11.008  12.925  12.973  1.00  0.00     0.230 A 
ATOM     17  N   UNL     1      10.188  13.441  13.937  1.00  0.00    -0.194 NA
ATOM     18  N   UNL     1      10.846  13.305  11.663  1.00  0.00    -0.221 NA
ATOM     19  C   UNL     1       9.192  14.285  13.573  1.00  0.00     0.146 A 
ATOM     20  C   UNL     1       9.866  14.175  11.287  1.00  0.00     0.127 A 
ATOM     21  C   UNL     1       9.027  14.671  12.274  1.00  0.00     0.038 A 
ATOM     22  N   UNL     1       8.329  14.932  14.391  1.00  0.00    -0.313 N 
ATOM     23  C   UNL     1       8.042  15.628  12.235  1.00  0.00     0.045 A 
ATOM     24  C   UNL     1       7.657  15.775  13.564  1.00  0.00     0.109 A 
ATOM     25  C   UNL     1       8.265  14.993  15.875  1.00  0.00     0.064 C 
ATOM     26  C   UNL     1       6.767  16.797  14.103  1.00  0.00     0.268 C 
ATOM     27  C   UNL     1       9.438  15.877  16.378  1.00  0.00     0.031 C 
ATOM     28  C   UNL     1       6.881  15.609  16.294  1.00  0.00     0.145 C 
ATOM     29  C   UNL     1       8.380  13.565  16.490  1.00  0.00     0.031 C 
ATOM     30  N   UNL     1       6.553  16.802  15.513  1.00  0.00    -0.348 N 
ATOM     31  O   UNL     1       6.243  17.674  13.366  1.00  0.00    -0.268 OA
ATOM     32  C   UNL     1       9.607  15.865  17.906  1.00  0.00     0.002 C 
ATOM     33  C   UNL     1       8.509  13.590  18.020  1.00  0.00     0.002 C 
ATOM     34  H   UNL     1       6.086  17.617  15.971  1.00  0.00     0.163 HD
ATOM     35  C   UNL     1       9.710  14.437  18.450  1.00  0.00     0.000 C 
ENDBRANCH  14  16
ENDBRANCH   4  14
TORSDOF 3
ENDMDL
MODEL 10
REMARK VINA RESULT:    -8.915      5.766      7.711
REMARK INTER + INTRA:         -10.787
REMARK INTER:                 -10.320
REMARK INTRA:                  -0.466
REMARK UNBOUND:                -0.308
REMARK SMILES CN1CCN(c2ccc(Nc3ncc4cc5n(c4n3)C3(CCCCC3)CNC5=O)nc2)CC1
REMARK SMILES IDX 6 1 31 2 30 3 9 4 8 5 7 6 5 7 1 8 2 9 3 10 33 11 4 12 32 13
REMARK SMILES IDX 10 14 11 16 19 17 12 18 18 19 13 20 14 21 17 22 15 23 16 24
REMARK SMILES IDX 20 25 28 26 21 27 26 28 25 29 27 30 29 31 22 32 24 33 23 35
REMARK H PARENT 10 15 27 34
REMARK Flexibility Score: inf
ROOT
ATOM      1  C   UNL     1       5.831  16.439  16.258  1.00  0.00     0.055 A 
ATOM      2  C   UNL     1       5.940  16.755  17.622  1.00  0.00     0.139 A 
ATOM      3  N   UNL     1       6.810  16.073  18.415  1.00  0.00    -0.237 NA
ATOM      4  C   UNL     1       7.587  15.064  17.938  1.00  0.00     0.132 A 
ATOM      5  C   UNL     1       7.524  14.733  16.575  1.00  0.00     0.049 A 
ATOM      6  C   UNL     1       6.639  15.417  15.741  1.00  0.00     0.031 A 
ENDROOT
BRANCH   1   7
ATOM      7  N   UNL     1       4.906  17.141  15.407  1.00  0.00    -0.368 N 
ATOM      8  C   UNL     1       2.538  18.160  12.867  1.00  0.00     0.105 C 
ATOM      9  N   UNL     1       3.136  18.884  14.001  1.00  0.00    -0.303 NA
ATOM     10  C   UNL     1       4.601  19.034  13.869  1.00  0.00     0.105 C 
ATOM     11  C   UNL     1       2.751  18.314  15.309  1.00  0.00     0.105 C 
ATOM     12  C   UNL     1       5.360  17.728  14.144  1.00  0.00     0.132 C 
ATOM     13  C   UNL     1       3.462  16.989  15.608  1.00  0.00     0.132 C 
ENDBRANCH   1   7
BRANCH   4  14
ATOM     14  N   UNL     1       8.497  14.404  18.831  1.00  0.00    -0.309 N 
ATOM     15  H   UNL     1       8.974  14.988  19.555  1.00  0.00     0.171 HD
BRANCH  14  16
ATOM     16  C   UNL     1       8.690  12.984  18.891  1.00  0.00     0.230 A 
ATOM     17  N   UNL     1       9.481  12.375  17.958  1.00  0.00    -0.194 NA
ATOM     18  N   UNL     1       8.144  12.245  19.911  1.00  0.00    -0.221 NA
ATOM     19  C   UNL     1       9.673  11.036  18.029  1.00  0.00     0.146 A 
ATOM     20  C   UNL     1       8.352  10.900  20.010  1.00  0.00     0.127 A 
ATOM     21  C   UNL     1       9.137  10.294  19.041  1.00  0.00     0.038 A 
ATOM     22  N   UNL     1      10.465  10.280  17.232  1.00  0.00    -0.313 N 
ATOM     23  C   UNL     1       9.615   9.010  18.930  1.00  0.00     0.045 A 
ATOM     24  C   UNL     1      10.448   9.054  17.816  1.00  0.00     0.109 A 
ATOM     25  C   UNL     1      11.401  10.674  16.145  1.00  0.00     0.064 C 
ATOM     26  C   UNL     1      11.349   7.999  17.363  1.00  0.00     0.268 C 
ATOM     27  C   UNL     1      12.646  11.338  16.792  1.00  0.00     0.031 C 
ATOM     28  C   UNL     1      11.807   9.387  15.341  1.00  0.00     0.145 C 
ATOM     29  C   UNL     1      10.717  11.677  15.167  1.00  0.00     0.031 C 
ATOM     30  N   UNL     1      12.162   8.276  16.226  1.00  0.00    -0.348 N 
ATOM     31  O   UNL     1      11.446   6.903  17.976  1.00  0.00    -0.268 OA
ATOM     32  C   UNL     1      13.607  11.970  15.771  1.00  0.00     0.002 C 
ATOM     33  C   UNL     1      11.697  12.259  14.138  1.00  0.00     0.002 C 
ATOM     34  H   UNL     1      12.953   7.640  15.977  1.00  0.00     0.163 HD
ATOM     35  C   UNL     1      12.877  12.940  14.837  1.00  0.00     0.000 C 
ENDBRANCH  14  16
ENDBRANCH   4  14
TORSDOF 3
ENDMDL
MODEL 11
REMARK VINA RESULT:    -8.820      5.616      7.603
REMARK INTER + INTRA:         -10.676
REMARK INTER:                 -10.166
REMARK INTRA:                  -0.510
REMARK UNBOUND:                -0.308
REMARK SMILES CN1CCN(c2ccc(Nc3ncc4cc5n(c4n3)C3(CCCCC3)CNC5=O)nc2)CC1
REMARK SMILES IDX 6 1 31 2 30 3 9 4 8 5 7 6 5 7 1 8 2 9 3 10 33 11 4 12 32 13
REMARK SMILES IDX 10 14 11 16 19 17 12 18 18 19 13 20 14 21 17 22 15 23 16 24
REMARK SMILES IDX 20 25 28 26 21 27 26 28 25 29 27 30 29 31 22 32 24 33 23 35
REMARK H PARENT 10 15 27 34
REMARK Flexibility Score: inf
ROOT
ATOM      1  C   UNL     1      17.423  16.080  15.836  1.00  0.00     0.055 A 
ATOM      2  C   UNL     1      17.218  15.200  16.910  1.00  0.00     0.139 A 
ATOM      3  N   UNL     1      15.985  14.674  17.137  1.00  0.00    -0.237 NA
ATOM      4  C   UNL     1      14.911  14.981  16.361  1.00  0.00     0.132 A 
ATOM      5  C   UNL     1      15.080  15.840  15.264  1.00  0.00     0.049 A 
ATOM      6  C   UNL     1      16.335  16.394  15.010  1.00  0.00     0.031 A 
ENDROOT
BRANCH   1   7
ATOM      7  N   UNL     1      18.719  16.657  15.587  1.00  0.00    -0.368 N 
ATOM      8  C   UNL     1      21.548  18.581  14.405  1.00  0.00     0.105 C 
ATOM      9  N   UNL     1      21.433  17.527  15.427  1.00  0.00    -0.303 NA
ATOM     10  C   UNL     1      21.026  16.226  14.856  1.00  0.00     0.105 C 
ATOM     11  C   UNL     1      20.579  17.927  16.565  1.00  0.00     0.105 C 
ATOM     12  C   UNL     1      19.540  16.184  14.470  1.00  0.00     0.132 C 
ATOM     13  C   UNL     1      19.087  17.932  16.211  1.00  0.00     0.132 C 
ENDBRANCH   1   7
BRANCH   4  14
ATOM     14  N   UNL     1      13.645  14.370  16.651  1.00  0.00    -0.309 N 
ATOM     15  H   UNL     1      12.928  14.948  17.144  1.00  0.00     0.171 HD
BRANCH  14  16
ATOM     16  C   UNL     1      13.245  13.072  16.186  1.00  0.00     0.230 A 
ATOM     17  N   UNL     1      13.260  12.017  17.053  1.00  0.00    -0.194 NA
ATOM     18  N   UNL     1      12.787  12.897  14.904  1.00  0.00    -0.221 NA
ATOM     19  C   UNL     1      12.866  10.797  16.615  1.00  0.00     0.146 A 
ATOM     20  C   UNL     1      12.361  11.681  14.457  1.00  0.00     0.127 A 
ATOM     21  C   UNL     1      12.405  10.615  15.343  1.00  0.00     0.038 A 
ATOM     22  N   UNL     1      12.761   9.660  17.342  1.00  0.00    -0.313 N 
ATOM     23  C   UNL     1      11.951   9.322  15.234  1.00  0.00     0.045 A 
ATOM     24  C   UNL     1      12.167   8.779  16.497  1.00  0.00     0.109 A 
ATOM     25  C   UNL     1      12.942   9.425  18.800  1.00  0.00     0.064 C 
ATOM     26  C   UNL     1      11.697   7.484  16.978  1.00  0.00     0.268 C 
ATOM     27  C   UNL     1      11.730  10.044  19.548  1.00  0.00     0.031 C 
ATOM     28  C   UNL     1      13.026   7.877  19.052  1.00  0.00     0.145 C 
ATOM     29  C   UNL     1      14.263  10.083  19.303  1.00  0.00     0.031 C 
ATOM     30  N   UNL     1      11.981   7.147  18.333  1.00  0.00    -0.348 N 
ATOM     31  O   UNL     1      11.024   6.710  16.245  1.00  0.00    -0.268 OA
ATOM     32  C   UNL     1      11.886  10.045  21.077  1.00  0.00     0.002 C 
ATOM     33  C   UNL     1      14.403  10.032  20.831  1.00  0.00     0.002 C 
ATOM     34  H   UNL     1      11.509   6.329  18.781  1.00  0.00     0.163 HD
ATOM     35  C   UNL     1      13.202  10.698  21.509  1.00  0.00     0.000 C 
ENDBRANCH  14  16
ENDBRANCH   4  14
TORSDOF 3
ENDMDL
MODEL 12
REMARK VINA RESULT:    -8.773      6.982      8.382
REMARK INTER + INTRA:         -10.620
REMARK INTER:                 -10.239
REMARK INTRA:                  -0.381
REMARK UNBOUND:                -0.308
REMARK SMILES CN1CCN(c2ccc(Nc3ncc4cc5n(c4n3)C3(CCCCC3)CNC5=O)nc2)CC1
REMARK SMILES IDX 6 1 31 2 30 3 9 4 8 5 7 6 5 7 1 8 2 9 3 10 33 11 4 12 32 13
REMARK SMILES IDX 10 14 11 16 19 17 12 18 18 19 13 20 14 21 17 22 15 23 16 24
REMARK SMILES IDX 20 25 28 26 21 27 26 28 25 29 27 30 29 31 22 32 24 33 23 35
REMARK H PARENT 10 15 27 34
REMARK Flexibility Score: inf
ROOT
ATOM      1  C   UNL     1       5.816  16.546  17.204  1.00  0.00     0.055 A 
ATOM      2  C   UNL     1       6.367  16.587  18.494  1.00  0.00     0.139 A 
ATOM      3  N   UNL     1       7.498  15.886  18.777  1.00  0.00    -0.237 NA
ATOM      4  C   UNL     1       8.126  15.116  17.848  1.00  0.00     0.132 A 
ATOM      5  C   UNL     1       7.618  15.067  16.540  1.00  0.00     0.049 A 
ATOM      6  C   UNL     1       6.459  15.777  16.225  1.00  0.00     0.031 A 
ENDROOT
BRANCH   1   7
ATOM      7  N   UNL     1       4.612  17.271  16.889  1.00  0.00    -0.368 N 
ATOM      8  C   UNL     1       2.090  19.494  15.548  1.00  0.00     0.105 C 
ATOM      9  N   UNL     1       2.024  18.430  16.563  1.00  0.00    -0.303 NA
ATOM     10  C   UNL     1       2.839  18.735  17.758  1.00  0.00     0.105 C 
ATOM     11  C   UNL     1       2.326  17.094  16.009  1.00  0.00     0.105 C 
ATOM     12  C   UNL     1       4.345  18.571  17.509  1.00  0.00     0.132 C 
ATOM     13  C   UNL     1       3.818  16.901  15.713  1.00  0.00     0.132 C 
ENDBRANCH   1   7
BRANCH   4  14
ATOM     14  N   UNL     1       9.327  14.422  18.216  1.00  0.00    -0.309 N 
ATOM     15  H   UNL     1      10.069  14.967  18.712  1.00  0.00     0.171 HD
BRANCH  14  16
ATOM     16  C   UNL     1       9.522  13.008  18.078  1.00  0.00     0.230 A 
ATOM     17  N   UNL     1      10.793  12.504  18.073  1.00  0.00    -0.194 NA
ATOM     18  N   UNL     1       8.449  12.154  18.020  1.00  0.00    -0.221 NA
ATOM     19  C   UNL     1      10.972  11.166  17.959  1.00  0.00     0.146 A 
ATOM     20  C   UNL     1       8.614  10.803  17.933  1.00  0.00     0.127 A 
ATOM     21  C   UNL     1       9.910  10.310  17.905  1.00  0.00     0.038 A 
ATOM     22  N   UNL     1      12.145  10.492  17.994  1.00  0.00    -0.313 N 
ATOM     23  C   UNL     1      10.396   9.025  17.936  1.00  0.00     0.045 A 
ATOM     24  C   UNL     1      11.776   9.185  18.016  1.00  0.00     0.109 A 
ATOM     25  C   UNL     1      13.529  10.972  18.253  1.00  0.00     0.064 C 
ATOM     26  C   UNL     1      12.760   8.135  18.257  1.00  0.00     0.268 C 
ATOM     27  C   UNL     1      13.653  11.313  19.763  1.00  0.00     0.031 C 
ATOM     28  C   UNL     1      14.538   9.838  17.850  1.00  0.00     0.145 C 
ATOM     29  C   UNL     1      13.840  12.240  17.400  1.00  0.00     0.031 C 
ATOM     30  N   UNL     1      14.126   8.530  18.362  1.00  0.00    -0.348 N 
ATOM     31  O   UNL     1      12.420   6.933  18.416  1.00  0.00    -0.268 OA
ATOM     32  C   UNL     1      14.974  12.007  20.131  1.00  0.00     0.002 C 
ATOM     33  C   UNL     1      15.184  12.884  17.768  1.00  0.00     0.002 C 
ATOM     34  H   UNL     1      14.841   7.858  18.720  1.00  0.00     0.163 HD
ATOM     35  C   UNL     1      15.225  13.239  19.257  1.00  0.00     0.000 C 
ENDBRANCH  14  16
ENDBRANCH   4  14
TORSDOF 3
ENDMDL
MODEL 13
REMARK VINA RESULT:    -8.770      6.008      7.602
REMARK INTER + INTRA:         -10.616
REMARK INTER:                  -9.880
REMARK INTRA:                  -0.736
REMARK UNBOUND:                -0.308
REMARK SMILES CN1CCN(c2ccc(Nc3ncc4cc5n(c4n3)C3(CCCCC3)CNC5=O)nc2)CC1
REMARK SMILES IDX 6 1 31 2 30 3 9 4 8 5 7 6 5 7 1 8 2 9 3 10 33 11 4 12 32 13
REMARK SMILES IDX 10 14 11 16 19 17 12 18 18 19 13 20 14 21 17 22 15 23 16 24
REMARK SMILES IDX 20 25 28 26 21 27 26 28 25 29 27 30 29 31 22 32 24 33 23 35
REMARK H PARENT 10 15 27 34
REMARK Flexibility Score: inf
ROOT
ATOM      1  C   UNL     1       9.657  15.505  17.167  1.00  0.00     0.055 A 
ATOM      2  C   UNL     1       9.541  15.389  18.561  1.00  0.00     0.139 A 
ATOM      3  N   UNL     1      10.640  15.138  19.321  1.00  0.00    -0.237 NA
ATOM      4  C   UNL     1      11.876  14.973  18.777  1.00  0.00     0.132 A 
ATOM      5  C   UNL     1      12.038  15.103  17.388  1.00  0.00     0.049 A 
ATOM      6  C   UNL     1      10.925  15.361  16.587  1.00  0.00     0.031 A 
ENDROOT
BRANCH   1   7
ATOM      7  N   UNL     1       8.502  15.758  16.345  1.00  0.00    -0.368 N 
ATOM      8  C   UNL     1       5.962  17.153  14.176  1.00  0.00     0.105 C 
ATOM      9  N   UNL     1       6.101  15.827  14.803  1.00  0.00    -0.303 NA
ATOM     10  C   UNL     1       6.048  15.890  16.279  1.00  0.00     0.105 C 
ATOM     11  C   UNL     1       7.286  15.089  14.319  1.00  0.00     0.105 C 
ATOM     12  C   UNL     1       7.337  16.453  16.897  1.00  0.00     0.132 C 
ATOM     13  C   UNL     1       8.599  15.642  14.887  1.00  0.00     0.132 C 
ENDBRANCH   1   7
BRANCH   4  14
ATOM     14  N   UNL     1      12.993  14.731  19.645  1.00  0.00    -0.309 N 
ATOM     15  H   UNL     1      13.566  15.555  19.939  1.00  0.00     0.171 HD
BRANCH  14  16
ATOM     16  C   UNL     1      13.291  13.465  20.251  1.00  0.00     0.230 A 
ATOM     17  N   UNL     1      13.036  12.315  19.559  1.00  0.00    -0.194 NA
ATOM     18  N   UNL     1      13.889  13.402  21.486  1.00  0.00    -0.221 NA
ATOM     19  C   UNL     1      13.334  11.122  20.129  1.00  0.00     0.146 A 
ATOM     20  C   UNL     1      14.220  12.209  22.059  1.00  0.00     0.127 A 
ATOM     21  C   UNL     1      13.932  11.051  21.354  1.00  0.00     0.038 A 
ATOM     22  N   UNL     1      13.206   9.895  19.572  1.00  0.00    -0.313 N 
ATOM     23  C   UNL     1      14.238   9.734  21.603  1.00  0.00     0.045 A 
ATOM     24  C   UNL     1      13.794   9.061  20.468  1.00  0.00     0.109 A 
ATOM     25  C   UNL     1      12.808   9.494  18.196  1.00  0.00     0.064 C 
ATOM     26  C   UNL     1      14.039   7.662  20.137  1.00  0.00     0.268 C 
ATOM     27  C   UNL     1      13.978   9.834  17.233  1.00  0.00     0.031 C 
ATOM     28  C   UNL     1      12.507   7.953  18.189  1.00  0.00     0.145 C 
ATOM     29  C   UNL     1      11.522  10.255  17.752  1.00  0.00     0.031 C 
ATOM     30  N   UNL     1      13.541   7.188  18.888  1.00  0.00    -0.348 N 
ATOM     31  O   UNL     1      14.703   6.908  20.897  1.00  0.00    -0.268 OA
ATOM     32  C   UNL     1      13.624   9.652  15.747  1.00  0.00     0.002 C 
ATOM     33  C   UNL     1      11.178  10.019  16.274  1.00  0.00     0.002 C 
ATOM     34  H   UNL     1      13.848   6.261  18.517  1.00  0.00     0.163 HD
ATOM     35  C   UNL     1      12.351  10.417  15.374  1.00  0.00     0.000 C 
ENDBRANCH  14  16
ENDBRANCH   4  14
TORSDOF 3
ENDMDL
MODEL 14
REMARK VINA RESULT:    -8.713      4.063      8.913
REMARK INTER + INTRA:         -10.549
REMARK INTER:                 -10.051
REMARK INTRA:                  -0.498
REMARK UNBOUND:                -0.308
REMARK SMILES CN1CCN(c2ccc(Nc3ncc4cc5n(c4n3)C3(CCCCC3)CNC5=O)nc2)CC1
REMARK SMILES IDX 6 1 31 2 30 3 9 4 8 5 7 6 5 7 1 8 2 9 3 10 33 11 4 12 32 13
REMARK SMILES IDX 10 14 11 16 19 17 12 18 18 19 13 20 14 21 17 22 15 23 16 24
REMARK SMILES IDX 20 25 28 26 21 27 26 28 25 29 27 30 29 31 22 32 24 33 23 35
REMARK H PARENT 10 15 27 34
REMARK Flexibility Score: inf
ROOT
ATOM      1  C   UNL     1      16.006  13.135  17.954  1.00  0.00     0.055 A 
ATOM      2  C   UNL     1      14.862  13.934  17.804  1.00  0.00     0.139 A 
ATOM      3  N   UNL     1      13.641  13.357  17.645  1.00  0.00    -0.237 NA
ATOM      4  C   UNL     1      13.476  12.007  17.607  1.00  0.00     0.132 A 
ATOM      5  C   UNL     1      14.593  11.173  17.776  1.00  0.00     0.049 A 
ATOM      6  C   UNL     1      15.857  11.741  17.941  1.00  0.00     0.031 A 
ENDROOT
BRANCH   1   7
ATOM      7  N   UNL     1      17.309  13.728  18.110  1.00  0.00    -0.368 N 
ATOM      8  C   UNL     1      20.676  14.989  17.695  1.00  0.00     0.105 C 
ATOM      9  N   UNL     1      19.751  15.013  18.840  1.00  0.00    -0.303 NA
ATOM     10  C   UNL     1      19.435  13.659  19.342  1.00  0.00     0.105 C 
ATOM     11  C   UNL     1      18.533  15.806  18.573  1.00  0.00     0.105 C 
ATOM     12  C   UNL     1      18.471  12.894  18.424  1.00  0.00     0.132 C 
ATOM     13  C   UNL     1      17.558  15.091  17.630  1.00  0.00     0.132 C 
ENDBRANCH   1   7
BRANCH   4  14
ATOM     14  N   UNL     1      12.153  11.471  17.457  1.00  0.00    -0.309 N 
ATOM     15  H   UNL     1      11.973  10.512  17.832  1.00  0.00     0.171 HD
BRANCH  14  16
ATOM     16  C   UNL     1      11.028  12.211  16.961  1.00  0.00     0.230 A 
ATOM     17  N   UNL     1      11.145  12.898  15.785  1.00  0.00    -0.194 NA
ATOM     18  N   UNL     1       9.823  12.181  17.618  1.00  0.00    -0.221 NA
ATOM     19  C   UNL     1      10.076  13.582  15.312  1.00  0.00     0.146 A 
ATOM     20  C   UNL     1       8.731  12.842  17.138  1.00  0.00     0.127 A 
ATOM     21  C   UNL     1       8.873  13.554  15.956  1.00  0.00     0.038 A 
ATOM     22  N   UNL     1       9.992  14.264  14.146  1.00  0.00    -0.313 N 
ATOM     23  C   UNL     1       7.954  14.214  15.175  1.00  0.00     0.045 A 
ATOM     24  C   UNL     1       8.683  14.613  14.058  1.00  0.00     0.109 A 
ATOM     25  C   UNL     1      10.965  14.390  13.028  1.00  0.00     0.064 C 
ATOM     26  C   UNL     1       8.145  15.195  12.834  1.00  0.00     0.268 C 
ATOM     27  C   UNL     1      11.006  13.040  12.262  1.00  0.00     0.031 C 
ATOM     28  C   UNL     1      10.497  15.556  12.084  1.00  0.00     0.145 C 
ATOM     29  C   UNL     1      12.386  14.731  13.571  1.00  0.00     0.031 C 
ATOM     30  N   UNL     1       9.066  15.477  11.783  1.00  0.00    -0.348 N 
ATOM     31  O   UNL     1       6.911  15.399  12.684  1.00  0.00    -0.268 OA
ATOM     32  C   UNL     1      12.116  12.968  11.200  1.00  0.00     0.002 C 
ATOM     33  C   UNL     1      13.463  14.687  12.477  1.00  0.00     0.002 C 
ATOM     34  H   UNL     1       8.717  15.712  10.827  1.00  0.00     0.163 HD
ATOM     35  C   UNL     1      13.485  13.317  11.792  1.00  0.00     0.000 C 
ENDBRANCH  14  16
ENDBRANCH   4  14
TORSDOF 3
ENDMDL
MODEL 15
REMARK VINA RESULT:    -8.699      5.414      7.118
REMARK INTER + INTRA:         -10.533
REMARK INTER:                  -9.892
REMARK INTRA:                  -0.642
REMARK UNBOUND:                -0.308
REMARK SMILES CN1CCN(c2ccc(Nc3ncc4cc5n(c4n3)C3(CCCCC3)CNC5=O)nc2)CC1
REMARK SMILES IDX 6 1 31 2 30 3 9 4 8 5 7 6 5 7 1 8 2 9 3 10 33 11 4 12 32 13
REMARK SMILES IDX 10 14 11 16 19 17 12 18 18 19 13 20 14 21 17 22 15 23 16 24
REMARK SMILES IDX 20 25 28 26 21 27 26 28 25 29 27 30 29 31 22 32 24 33 23 35
REMARK H PARENT 10 15 27 34
REMARK Flexibility Score: inf
ROOT
ATOM      1  C   UNL     1      17.464  16.277  14.917  1.00  0.00     0.055 A 
ATOM      2  C   UNL     1      16.726  16.192  13.726  1.00  0.00     0.139 A 
ATOM      3  N   UNL     1      15.402  15.885  13.761  1.00  0.00    -0.237 NA
ATOM      4  C   UNL     1      14.746  15.635  14.927  1.00  0.00     0.132 A 
ATOM      5  C   UNL     1      15.444  15.732  16.142  1.00  0.00     0.049 A 
ATOM      6  C   UNL     1      16.803  16.044  16.132  1.00  0.00     0.031 A 
ENDROOT
BRANCH   1   7
ATOM      7  N   UNL     1      18.869  16.588  14.898  1.00  0.00    -0.368 N 
ATOM      8  C   UNL     1      22.482  16.569  15.114  1.00  0.00     0.105 C 
ATOM      9  N   UNL     1      21.527  17.609  14.696  1.00  0.00    -0.303 NA
ATOM     10  C   UNL     1      20.639  18.038  15.798  1.00  0.00     0.105 C 
ATOM     11  C   UNL     1      20.770  17.235  13.484  1.00  0.00     0.105 C 
ATOM     12  C   UNL     1      19.554  17.001  16.125  1.00  0.00     0.132 C 
ATOM     13  C   UNL     1      19.698  16.174  13.762  1.00  0.00     0.132 C 
ENDBRANCH   1   7
BRANCH   4  14
ATOM     14  N   UNL     1      13.342  15.338  14.887  1.00  0.00    -0.309 N 
ATOM     15  H   UNL     1      12.682  16.136  14.748  1.00  0.00     0.171 HD
BRANCH  14  16
ATOM     16  C   UNL     1      12.792  14.013  14.880  1.00  0.00     0.230 A 
ATOM     17  N   UNL     1      13.188  13.119  15.834  1.00  0.00    -0.194 NA
ATOM     18  N   UNL     1      11.828  13.659  13.969  1.00  0.00    -0.221 NA
ATOM     19  C   UNL     1      12.654  11.874  15.834  1.00  0.00     0.146 A 
ATOM     20  C   UNL     1      11.262  12.418  13.974  1.00  0.00     0.127 A 
ATOM     21  C   UNL     1      11.692  11.514  14.935  1.00  0.00     0.038 A 
ATOM     22  N   UNL     1      12.882  10.886  16.730  1.00  0.00    -0.313 N 
ATOM     23  C   UNL     1      11.246  10.257  15.266  1.00  0.00     0.045 A 
ATOM     24  C   UNL     1      11.990   9.919  16.393  1.00  0.00     0.109 A 
ATOM     25  C   UNL     1      13.675  10.886  17.989  1.00  0.00     0.064 C 
ATOM     26  C   UNL     1      11.783   8.760  17.254  1.00  0.00     0.268 C 
ATOM     27  C   UNL     1      12.897  11.705  19.055  1.00  0.00     0.031 C 
ATOM     28  C   UNL     1      13.872   9.400  18.459  1.00  0.00     0.145 C 
ATOM     29  C   UNL     1      15.078  11.524  17.755  1.00  0.00     0.031 C 
ATOM     30  N   UNL     1      12.625   8.635  18.397  1.00  0.00    -0.348 N 
ATOM     31  O   UNL     1      10.867   7.924  17.031  1.00  0.00    -0.268 OA
ATOM     32  C   UNL     1      13.697  11.951  20.345  1.00  0.00     0.002 C 
ATOM     33  C   UNL     1      15.863  11.720  19.060  1.00  0.00     0.002 C 
ATOM     34  H   UNL     1      12.399   7.939  19.143  1.00  0.00     0.163 HD
ATOM     35  C   UNL     1      15.065  12.573  20.050  1.00  0.00     0.000 C 
ENDBRANCH  14  16
ENDBRANCH   4  14
TORSDOF 3
ENDMDL
