MODEL 1
REMARK VINA RESULT:    -8.353      0.000      0.000
REMARK INTER + INTRA:         -12.818
REMARK INTER:                 -12.015
REMARK INTRA:                  -0.803
REMARK UNBOUND:                -0.803
REMARK SMILES C=CC(=O)N1CC[C@H](n2nc(C#Cc3cc(OC)cc(OC)c3)c3c(N)ncnc32)C1
REMARK SMILES IDX 11 1 10 2 9 3 30 4 24 5 25 6 27 7 28 8 29 9 12 10 13 11
REMARK SMILES IDX 14 12 16 13 15 14 19 15 20 16 23 17 17 18 18 19 21 20 22 21
REMARK SMILES IDX 8 22 7 23 31 24 6 25 5 26 3 27 4 28 2 29 1 30 26 31
REMARK H PARENT 26 32 26 33
REMARK Flexibility Score: inf
ROOT
ATOM      1  C   UNL     1      18.975  33.347  11.724  1.00  0.00     0.148 A 
ATOM      2  N   UNL     1      18.595  33.149  10.438  1.00  0.00    -0.161 NA
ATOM      3  N   UNL     1      17.269  33.231  10.383  1.00  0.00    -0.241 N 
ATOM      4  C   UNL     1      16.810  33.475  11.622  1.00  0.00     0.164 A 
ATOM      5  C   UNL     1      17.847  33.559  12.503  1.00  0.00     0.097 A 
ATOM      6  C   UNL     1      17.585  33.805  13.854  1.00  0.00     0.139 A 
ATOM      7  N   UNL     1      16.278  33.952  14.226  1.00  0.00    -0.219 NA
ATOM      8  C   UNL     1      15.256  33.864  13.319  1.00  0.00     0.226 A 
ATOM      9  N   UNL     1      15.518  33.623  12.001  1.00  0.00    -0.217 NA
ENDROOT
BRANCH   1  10
ATOM     10  C   UNL     1      20.346  33.318  12.152  1.00  0.00    -0.039 C 
ATOM     11  C   UNL     1      21.496  33.289  12.509  1.00  0.00    -0.060 C 
BRANCH  11  12
ATOM     12  C   UNL     1      22.869  33.257  12.939  1.00  0.00     0.032 A 
ATOM     13  C   UNL     1      25.025  32.138  12.999  1.00  0.00     0.123 A 
ATOM     14  C   UNL     1      23.688  32.179  12.587  1.00  0.00     0.064 A 
ATOM     15  C   UNL     1      25.540  33.195  13.774  1.00  0.00     0.092 A 
ATOM     16  C   UNL     1      24.720  34.284  14.131  1.00  0.00     0.123 A 
ATOM     17  C   UNL     1      23.386  34.305  13.709  1.00  0.00     0.064 A 
BRANCH  13  18
ATOM     18  O   UNL     1      25.803  31.034  12.619  1.00  0.00    -0.497 OA
ATOM     19  C   UNL     1      27.117  31.123  12.077  1.00  0.00     0.278 C 
ENDBRANCH  13  18
BRANCH  16  20
ATOM     20  O   UNL     1      25.189  35.361  14.900  1.00  0.00    -0.497 OA
ATOM     21  C   UNL     1      24.458  36.559  15.138  1.00  0.00     0.278 C 
ENDBRANCH  16  20
ENDBRANCH  11  12
ENDBRANCH   1  10
BRANCH   3  22
ATOM     22  C   UNL     1      16.474  33.060   9.162  1.00  0.00     0.131 C 
ATOM     23  C   UNL     1      17.355  33.041   7.909  1.00  0.00     0.051 C 
ATOM     24  C   UNL     1      15.717  31.732   9.161  1.00  0.00     0.147 C 
ATOM     25  C   UNL     1      16.711  32.027   6.973  1.00  0.00     0.122 C 
ATOM     26  N   UNL     1      15.853  31.205   7.813  1.00  0.00    -0.337 N 
BRANCH  26  27
ATOM     27  C   UNL     1      14.992  30.174   7.297  1.00  0.00     0.246 C 
ATOM     28  O   UNL     1      13.773  30.163   7.617  1.00  0.00    -0.270 OA
BRANCH  27  29
ATOM     29  C   UNL     1      15.486  29.129   6.384  1.00  0.00     0.063 C 
ATOM     30  C   UNL     1      16.552  28.383   6.663  1.00  0.00     0.014 C 
ENDBRANCH  27  29
ENDBRANCH  26  27
ENDBRANCH   3  22
BRANCH   6  31
ATOM     31  N   UNL     1      18.618  33.905  14.838  1.00  0.00    -0.383 N 
ATOM     32  H   UNL     1      19.612  34.081  14.586  1.00  0.00     0.158 HD
ATOM     33  H   UNL     1      18.381  33.802  15.849  1.00  0.00     0.158 HD
ENDBRANCH   6  31
TORSDOF 8
ENDMDL
MODEL 2
REMARK VINA RESULT:    -8.336      0.705      2.274
REMARK INTER + INTRA:         -12.794
REMARK INTER:                 -12.065
REMARK INTRA:                  -0.729
REMARK UNBOUND:                -0.803
REMARK SMILES C=CC(=O)N1CC[C@H](n2nc(C#Cc3cc(OC)cc(OC)c3)c3c(N)ncnc32)C1
REMARK SMILES IDX 11 1 10 2 9 3 30 4 24 5 25 6 27 7 28 8 29 9 12 10 13 11
REMARK SMILES IDX 14 12 16 13 15 14 19 15 20 16 23 17 17 18 18 19 21 20 22 21
REMARK SMILES IDX 8 22 7 23 31 24 6 25 5 26 3 27 4 28 2 29 1 30 26 31
REMARK H PARENT 26 32 26 33
REMARK Flexibility Score: inf
ROOT
ATOM      1  C   UNL     1      19.207  33.468  11.884  1.00  0.00     0.148 A 
ATOM      2  N   UNL     1      18.751  33.276  10.623  1.00  0.00    -0.161 NA
ATOM      3  N   UNL     1      17.426  33.388  10.641  1.00  0.00    -0.241 N 
ATOM      4  C   UNL     1      17.043  33.646  11.903  1.00  0.00     0.164 A 
ATOM      5  C   UNL     1      18.129  33.707  12.724  1.00  0.00     0.097 A 
ATOM      6  C   UNL     1      17.949  33.962  14.088  1.00  0.00     0.139 A 
ATOM      7  N   UNL     1      16.668  34.139  14.531  1.00  0.00    -0.219 NA
ATOM      8  C   UNL     1      15.595  34.073  13.683  1.00  0.00     0.226 A 
ATOM      9  N   UNL     1      15.778  33.823  12.353  1.00  0.00    -0.217 NA
ENDROOT
BRANCH   1  10
ATOM     10  C   UNL     1      20.598  33.409  12.235  1.00  0.00    -0.039 C 
ATOM     11  C   UNL     1      21.767  33.363  12.526  1.00  0.00    -0.060 C 
BRANCH  11  12
ATOM     12  C   UNL     1      23.162  33.303  12.875  1.00  0.00     0.032 A 
ATOM     13  C   UNL     1      25.111  34.314  13.915  1.00  0.00     0.123 A 
ATOM     14  C   UNL     1      23.756  34.361  13.570  1.00  0.00     0.064 A 
ATOM     15  C   UNL     1      25.875  33.186  13.555  1.00  0.00     0.092 A 
ATOM     16  C   UNL     1      25.281  32.115  12.856  1.00  0.00     0.123 A 
ATOM     17  C   UNL     1      23.925  32.185  12.520  1.00  0.00     0.064 A 
BRANCH  13  18
ATOM     18  O   UNL     1      25.658  35.402  14.611  1.00  0.00    -0.497 OA
ATOM     19  C   UNL     1      26.733  36.205  14.134  1.00  0.00     0.278 C 
ENDBRANCH  13  18
BRANCH  16  20
ATOM     20  O   UNL     1      26.001  30.971  12.478  1.00  0.00    -0.497 OA
ATOM     21  C   UNL     1      27.378  30.969  12.116  1.00  0.00     0.278 C 
ENDBRANCH  16  20
ENDBRANCH  11  12
ENDBRANCH   1  10
BRANCH   3  22
ATOM     22  C   UNL     1      16.561  33.233   9.467  1.00  0.00     0.131 C 
ATOM     23  C   UNL     1      17.370  33.175   8.168  1.00  0.00     0.051 C 
ATOM     24  C   UNL     1      15.763  31.930   9.521  1.00  0.00     0.147 C 
ATOM     25  C   UNL     1      16.645  32.175   7.279  1.00  0.00     0.122 C 
ATOM     26  N   UNL     1      15.808  31.388   8.173  1.00  0.00    -0.337 N 
BRANCH  26  27
ATOM     27  C   UNL     1      14.888  30.382   7.714  1.00  0.00     0.246 C 
ATOM     28  O   UNL     1      13.907  30.059   8.437  1.00  0.00    -0.270 OA
BRANCH  27  29
ATOM     29  C   UNL     1      15.043  29.718   6.409  1.00  0.00     0.063 C 
ATOM     30  C   UNL     1      14.681  28.454   6.203  1.00  0.00     0.014 C 
ENDBRANCH  27  29
ENDBRANCH  26  27
ENDBRANCH   3  22
BRANCH   6  31
ATOM     31  N   UNL     1      19.037  34.040  15.011  1.00  0.00    -0.383 N 
ATOM     32  H   UNL     1      18.956  33.718  15.997  1.00  0.00     0.158 HD
ATOM     33  H   UNL     1      19.954  34.431  14.699  1.00  0.00     0.158 HD
ENDBRANCH   6  31
TORSDOF 8
ENDMDL
MODEL 3
REMARK VINA RESULT:    -8.324      2.679      3.733
REMARK INTER + INTRA:         -12.776
REMARK INTER:                 -11.936
REMARK INTRA:                  -0.840
REMARK UNBOUND:                -0.803
REMARK SMILES C=CC(=O)N1CC[C@H](n2nc(C#Cc3cc(OC)cc(OC)c3)c3c(N)ncnc32)C1
REMARK SMILES IDX 11 1 10 2 9 3 30 4 24 5 25 6 27 7 28 8 29 9 12 10 13 11
REMARK SMILES IDX 14 12 16 13 15 14 19 15 20 16 23 17 17 18 18 19 21 20 22 21
REMARK SMILES IDX 8 22 7 23 31 24 6 25 5 26 3 27 4 28 2 29 1 30 26 31
REMARK H PARENT 26 32 26 33
REMARK Flexibility Score: inf
ROOT
ATOM      1  C   UNL     1      18.246  33.834  14.561  1.00  0.00     0.148 A 
ATOM      2  N   UNL     1      18.001  33.684  13.237  1.00  0.00    -0.161 NA
ATOM      3  N   UNL     1      16.694  33.825  13.041  1.00  0.00    -0.241 N 
ATOM      4  C   UNL     1      16.113  34.060  14.230  1.00  0.00     0.164 A 
ATOM      5  C   UNL     1      17.049  34.076  15.220  1.00  0.00     0.097 A 
ATOM      6  C   UNL     1      16.652  34.300  16.542  1.00  0.00     0.139 A 
ATOM      7  N   UNL     1      15.319  34.495  16.774  1.00  0.00    -0.219 NA
ATOM      8  C   UNL     1      14.400  34.474  15.760  1.00  0.00     0.226 A 
ATOM      9  N   UNL     1      14.794  34.254  14.471  1.00  0.00    -0.217 NA
ENDROOT
BRANCH   1  10
ATOM     10  C   UNL     1      19.560  33.734  15.134  1.00  0.00    -0.039 C 
ATOM     11  C   UNL     1      20.659  33.652  15.619  1.00  0.00    -0.060 C 
BRANCH  11  12
ATOM     12  C   UNL     1      21.975  33.555  16.194  1.00  0.00     0.032 A 
ATOM     13  C   UNL     1      23.413  33.510  18.152  1.00  0.00     0.123 A 
ATOM     14  C   UNL     1      22.139  33.604  17.582  1.00  0.00     0.064 A 
ATOM     15  C   UNL     1      24.534  33.364  17.313  1.00  0.00     0.092 A 
ATOM     16  C   UNL     1      24.377  33.312  15.913  1.00  0.00     0.123 A 
ATOM     17  C   UNL     1      23.093  33.409  15.365  1.00  0.00     0.064 A 
BRANCH  13  18
ATOM     18  O   UNL     1      23.521  33.566  19.550  1.00  0.00    -0.497 OA
ATOM     19  C   UNL     1      24.414  32.769  20.321  1.00  0.00     0.278 C 
ENDBRANCH  13  18
BRANCH  16  20
ATOM     20  O   UNL     1      25.464  33.166  15.037  1.00  0.00    -0.497 OA
ATOM     21  C   UNL     1      25.356  32.731  13.686  1.00  0.00     0.278 C 
ENDBRANCH  16  20
ENDBRANCH  11  12
ENDBRANCH   1  10
BRANCH   3  22
ATOM     22  C   UNL     1      16.030  33.719  11.737  1.00  0.00     0.131 C 
ATOM     23  C   UNL     1      16.523  34.791  10.760  1.00  0.00     0.051 C 
ATOM     24  C   UNL     1      16.316  32.376  11.064  1.00  0.00     0.147 C 
ATOM     25  C   UNL     1      16.558  34.115   9.396  1.00  0.00     0.122 C 
ATOM     26  N   UNL     1      16.562  32.684   9.666  1.00  0.00    -0.337 N 
BRANCH  26  27
ATOM     27  C   UNL     1      16.504  31.684   8.633  1.00  0.00     0.246 C 
ATOM     28  O   UNL     1      17.460  30.875   8.495  1.00  0.00    -0.270 OA
BRANCH  27  29
ATOM     29  C   UNL     1      15.347  31.560   7.730  1.00  0.00     0.063 C 
ATOM     30  C   UNL     1      14.580  30.473   7.697  1.00  0.00     0.014 C 
ENDBRANCH  27  29
ENDBRANCH  26  27
ENDBRANCH   3  22
BRANCH   6  31
ATOM     31  N   UNL     1      17.575  34.331  17.633  1.00  0.00    -0.383 N 
ATOM     32  H   UNL     1      17.276  34.185  18.619  1.00  0.00     0.158 HD
ATOM     33  H   UNL     1      18.588  34.502  17.450  1.00  0.00     0.158 HD
ENDBRANCH   6  31
TORSDOF 8
ENDMDL
MODEL 4
REMARK VINA RESULT:    -8.319      2.679      3.332
REMARK INTER + INTRA:         -12.770
REMARK INTER:                 -11.931
REMARK INTRA:                  -0.839
REMARK UNBOUND:                -0.803
REMARK SMILES C=CC(=O)N1CC[C@H](n2nc(C#Cc3cc(OC)cc(OC)c3)c3c(N)ncnc32)C1
REMARK SMILES IDX 11 1 10 2 9 3 30 4 24 5 25 6 27 7 28 8 29 9 12 10 13 11
REMARK SMILES IDX 14 12 16 13 15 14 19 15 20 16 23 17 17 18 18 19 21 20 22 21
REMARK SMILES IDX 8 22 7 23 31 24 6 25 5 26 3 27 4 28 2 29 1 30 26 31
REMARK H PARENT 26 32 26 33
REMARK Flexibility Score: inf
ROOT
ATOM      1  C   UNL     1      18.251  33.812  14.545  1.00  0.00     0.148 A 
ATOM      2  N   UNL     1      18.011  33.664  13.220  1.00  0.00    -0.161 NA
ATOM      3  N   UNL     1      16.704  33.805  13.019  1.00  0.00    -0.241 N 
ATOM      4  C   UNL     1      16.119  34.037  14.206  1.00  0.00     0.164 A 
ATOM      5  C   UNL     1      17.052  34.052  15.200  1.00  0.00     0.097 A 
ATOM      6  C   UNL     1      16.650  34.273  16.520  1.00  0.00     0.139 A 
ATOM      7  N   UNL     1      15.316  34.467  16.749  1.00  0.00    -0.219 NA
ATOM      8  C   UNL     1      14.400  34.447  15.731  1.00  0.00     0.226 A 
ATOM      9  N   UNL     1      14.799  34.230  14.443  1.00  0.00    -0.217 NA
ENDROOT
BRANCH   1  10
ATOM     10  C   UNL     1      19.563  33.712  15.122  1.00  0.00    -0.039 C 
ATOM     11  C   UNL     1      20.661  33.630  15.611  1.00  0.00    -0.060 C 
BRANCH  11  12
ATOM     12  C   UNL     1      21.975  33.534  16.190  1.00  0.00     0.032 A 
ATOM     13  C   UNL     1      24.377  33.287  15.916  1.00  0.00     0.123 A 
ATOM     14  C   UNL     1      23.095  33.381  15.365  1.00  0.00     0.064 A 
ATOM     15  C   UNL     1      24.532  33.347  17.315  1.00  0.00     0.092 A 
ATOM     16  C   UNL     1      23.408  33.503  18.152  1.00  0.00     0.123 A 
ATOM     17  C   UNL     1      22.135  33.594  17.579  1.00  0.00     0.064 A 
BRANCH  13  18
ATOM     18  O   UNL     1      25.465  33.134  15.044  1.00  0.00    -0.497 OA
ATOM     19  C   UNL     1      25.356  32.732  13.682  1.00  0.00     0.278 C 
ENDBRANCH  13  18
BRANCH  16  20
ATOM     20  O   UNL     1      23.513  33.569  19.550  1.00  0.00    -0.497 OA
ATOM     21  C   UNL     1      24.400  32.774  20.330  1.00  0.00     0.278 C 
ENDBRANCH  16  20
ENDBRANCH  11  12
ENDBRANCH   1  10
BRANCH   3  22
ATOM     22  C   UNL     1      16.046  33.700  11.713  1.00  0.00     0.131 C 
ATOM     23  C   UNL     1      16.537  34.778  10.741  1.00  0.00     0.051 C 
ATOM     24  C   UNL     1      16.340  32.361  11.036  1.00  0.00     0.147 C 
ATOM     25  C   UNL     1      16.579  34.108   9.375  1.00  0.00     0.122 C 
ATOM     26  N   UNL     1      16.589  32.676   9.639  1.00  0.00    -0.337 N 
BRANCH  26  27
ATOM     27  C   UNL     1      16.539  31.680   8.602  1.00  0.00     0.246 C 
ATOM     28  O   UNL     1      17.484  30.855   8.486  1.00  0.00    -0.270 OA
BRANCH  27  29
ATOM     29  C   UNL     1      15.403  31.579   7.670  1.00  0.00     0.063 C 
ATOM     30  C   UNL     1      14.609  30.512   7.627  1.00  0.00     0.014 C 
ENDBRANCH  27  29
ENDBRANCH  26  27
ENDBRANCH   3  22
BRANCH   6  31
ATOM     31  N   UNL     1      17.569  34.303  17.616  1.00  0.00    -0.383 N 
ATOM     32  H   UNL     1      18.380  33.655  17.680  1.00  0.00     0.158 HD
ATOM     33  H   UNL     1      17.435  34.996  18.385  1.00  0.00     0.158 HD
ENDBRANCH   6  31
TORSDOF 8
ENDMDL
MODEL 5
REMARK VINA RESULT:    -8.277      5.002      7.101
REMARK INTER + INTRA:         -12.709
REMARK INTER:                 -12.277
REMARK INTRA:                  -0.432
REMARK UNBOUND:                -0.803
REMARK SMILES C=CC(=O)N1CC[C@H](n2nc(C#Cc3cc(OC)cc(OC)c3)c3c(N)ncnc32)C1
REMARK SMILES IDX 11 1 10 2 9 3 30 4 24 5 25 6 27 7 28 8 29 9 12 10 13 11
REMARK SMILES IDX 14 12 16 13 15 14 19 15 20 16 23 17 17 18 18 19 21 20 22 21
REMARK SMILES IDX 8 22 7 23 31 24 6 25 5 26 3 27 4 28 2 29 1 30 26 31
REMARK H PARENT 26 32 26 33
REMARK Flexibility Score: inf
ROOT
ATOM      1  C   UNL     1      17.117  35.314  15.646  1.00  0.00     0.148 A 
ATOM      2  N   UNL     1      17.876  35.002  14.568  1.00  0.00    -0.161 NA
ATOM      3  N   UNL     1      17.100  34.387  13.680  1.00  0.00    -0.241 N 
ATOM      4  C   UNL     1      15.860  34.306  14.191  1.00  0.00     0.164 A 
ATOM      5  C   UNL     1      15.819  34.877  15.428  1.00  0.00     0.097 A 
ATOM      6  C   UNL     1      14.615  34.895  16.140  1.00  0.00     0.139 A 
ATOM      7  N   UNL     1      13.523  34.327  15.545  1.00  0.00    -0.219 NA
ATOM      8  C   UNL     1      13.593  33.760  14.300  1.00  0.00     0.226 A 
ATOM      9  N   UNL     1      14.772  33.746  13.610  1.00  0.00    -0.217 NA
ENDROOT
BRANCH   1  10
ATOM     10  C   UNL     1      17.637  35.981  16.807  1.00  0.00    -0.039 C 
ATOM     11  C   UNL     1      18.073  36.536  17.783  1.00  0.00    -0.060 C 
BRANCH  11  12
ATOM     12  C   UNL     1      18.592  37.204  18.948  1.00  0.00     0.032 A 
ATOM     13  C   UNL     1      18.269  38.731  20.810  1.00  0.00     0.123 A 
ATOM     14  C   UNL     1      17.776  38.077  19.676  1.00  0.00     0.064 A 
ATOM     15  C   UNL     1      19.598  38.500  21.216  1.00  0.00     0.092 A 
ATOM     16  C   UNL     1      20.424  37.620  20.488  1.00  0.00     0.123 A 
ATOM     17  C   UNL     1      19.911  36.978  19.356  1.00  0.00     0.064 A 
BRANCH  13  18
ATOM     18  O   UNL     1      17.410  39.596  21.503  1.00  0.00    -0.497 OA
ATOM     19  C   UNL     1      17.258  40.982  21.213  1.00  0.00     0.278 C 
ENDBRANCH  13  18
BRANCH  16  20
ATOM     20  O   UNL     1      21.754  37.358  20.854  1.00  0.00    -0.497 OA
ATOM     21  C   UNL     1      22.391  37.892  22.010  1.00  0.00     0.278 C 
ENDBRANCH  16  20
ENDBRANCH  11  12
ENDBRANCH   1  10
BRANCH   3  22
ATOM     22  C   UNL     1      17.558  33.880  12.382  1.00  0.00     0.131 C 
ATOM     23  C   UNL     1      17.124  32.429  12.155  1.00  0.00     0.051 C 
ATOM     24  C   UNL     1      16.968  34.681  11.222  1.00  0.00     0.147 C 
ATOM     25  C   UNL     1      16.798  32.328  10.671  1.00  0.00     0.122 C 
ATOM     26  N   UNL     1      16.593  33.697  10.219  1.00  0.00    -0.337 N 
BRANCH  26  27
ATOM     27  C   UNL     1      16.347  34.049   8.846  1.00  0.00     0.246 C 
ATOM     28  O   UNL     1      15.686  35.088   8.579  1.00  0.00    -0.270 OA
BRANCH  27  29
ATOM     29  C   UNL     1      16.860  33.238   7.728  1.00  0.00     0.063 C 
ATOM     30  C   UNL     1      16.158  32.247   7.185  1.00  0.00     0.014 C 
ENDBRANCH  27  29
ENDBRANCH  26  27
ENDBRANCH   3  22
BRANCH   6  31
ATOM     31  N   UNL     1      14.493  35.474  17.441  1.00  0.00    -0.383 N 
ATOM     32  H   UNL     1      13.570  35.633  17.896  1.00  0.00     0.158 HD
ATOM     33  H   UNL     1      15.351  35.751  17.967  1.00  0.00     0.158 HD
ENDBRANCH   6  31
TORSDOF 8
ENDMDL
MODEL 6
REMARK VINA RESULT:    -8.274      1.522      1.806
REMARK INTER + INTRA:         -12.704
REMARK INTER:                 -11.827
REMARK INTRA:                  -0.878
REMARK UNBOUND:                -0.803
REMARK SMILES C=CC(=O)N1CC[C@H](n2nc(C#Cc3cc(OC)cc(OC)c3)c3c(N)ncnc32)C1
REMARK SMILES IDX 11 1 10 2 9 3 30 4 24 5 25 6 27 7 28 8 29 9 12 10 13 11
REMARK SMILES IDX 14 12 16 13 15 14 19 15 20 16 23 17 17 18 18 19 21 20 22 21
REMARK SMILES IDX 8 22 7 23 31 24 6 25 5 26 3 27 4 28 2 29 1 30 26 31
REMARK H PARENT 26 32 26 33
REMARK Flexibility Score: inf
ROOT
ATOM      1  C   UNL     1      19.627  33.784  12.619  1.00  0.00     0.148 A 
ATOM      2  N   UNL     1      18.903  33.620  11.485  1.00  0.00    -0.161 NA
ATOM      3  N   UNL     1      17.617  33.754  11.794  1.00  0.00    -0.241 N 
ATOM      4  C   UNL     1      17.524  33.998  13.112  1.00  0.00     0.164 A 
ATOM      5  C   UNL     1      18.764  34.028  13.677  1.00  0.00     0.097 A 
ATOM      6  C   UNL     1      18.891  34.264  15.050  1.00  0.00     0.139 A 
ATOM      7  N   UNL     1      17.742  34.456  15.765  1.00  0.00    -0.219 NA
ATOM      8  C   UNL     1      16.509  34.421  15.171  1.00  0.00     0.226 A 
ATOM      9  N   UNL     1      16.391  34.189  13.830  1.00  0.00    -0.217 NA
ENDROOT
BRANCH   1  10
ATOM     10  C   UNL     1      21.060  33.695  12.656  1.00  0.00    -0.039 C 
ATOM     11  C   UNL     1      22.262  33.616  12.691  1.00  0.00    -0.060 C 
BRANCH  11  12
ATOM     12  C   UNL     1      23.698  33.528  12.732  1.00  0.00     0.032 A 
ATOM     13  C   UNL     1      25.767  32.576  11.885  1.00  0.00     0.123 A 
ATOM     14  C   UNL     1      24.372  32.671  11.855  1.00  0.00     0.064 A 
ATOM     15  C   UNL     1      26.491  33.356  12.809  1.00  0.00     0.092 A 
ATOM     16  C   UNL     1      25.818  34.223  13.693  1.00  0.00     0.123 A 
ATOM     17  C   UNL     1      24.422  34.300  13.647  1.00  0.00     0.064 A 
BRANCH  13  18
ATOM     18  O   UNL     1      26.393  31.701  10.986  1.00  0.00    -0.497 OA
ATOM     19  C   UNL     1      27.755  31.295  11.073  1.00  0.00     0.278 C 
ENDBRANCH  13  18
BRANCH  16  20
ATOM     20  O   UNL     1      26.496  35.019  14.629  1.00  0.00    -0.497 OA
ATOM     21  C   UNL     1      27.282  36.160  14.298  1.00  0.00     0.278 C 
ENDBRANCH  16  20
ENDBRANCH  11  12
ENDBRANCH   1  10
BRANCH   3  22
ATOM     22  C   UNL     1      16.513  33.632  10.836  1.00  0.00     0.131 C 
ATOM     23  C   UNL     1      16.517  34.775   9.817  1.00  0.00     0.051 C 
ATOM     24  C   UNL     1      16.611  32.343  10.020  1.00  0.00     0.147 C 
ATOM     25  C   UNL     1      16.071  34.150   8.501  1.00  0.00     0.122 C 
ATOM     26  N   UNL     1      16.279  32.718   8.656  1.00  0.00    -0.337 N 
BRANCH  26  27
ATOM     27  C   UNL     1      15.899  31.751   7.660  1.00  0.00     0.246 C 
ATOM     28  O   UNL     1      14.746  31.245   7.693  1.00  0.00    -0.270 OA
BRANCH  27  29
ATOM     29  C   UNL     1      16.814  31.339   6.582  1.00  0.00     0.063 C 
ATOM     30  C   UNL     1      18.047  30.899   6.821  1.00  0.00     0.014 C 
ENDBRANCH  27  29
ENDBRANCH  26  27
ENDBRANCH   3  22
BRANCH   6  31
ATOM     31  N   UNL     1      20.156  34.309  15.714  1.00  0.00    -0.383 N 
ATOM     32  H   UNL     1      20.372  33.717  16.542  1.00  0.00     0.158 HD
ATOM     33  H   UNL     1      20.900  34.953  15.366  1.00  0.00     0.158 HD
ENDBRANCH   6  31
TORSDOF 8
ENDMDL
MODEL 7
REMARK VINA RESULT:    -8.255      1.535      2.850
REMARK INTER + INTRA:         -12.677
REMARK INTER:                 -11.875
REMARK INTRA:                  -0.803
REMARK UNBOUND:                -0.803
REMARK SMILES C=CC(=O)N1CC[C@H](n2nc(C#Cc3cc(OC)cc(OC)c3)c3c(N)ncnc32)C1
REMARK SMILES IDX 11 1 10 2 9 3 30 4 24 5 25 6 27 7 28 8 29 9 12 10 13 11
REMARK SMILES IDX 14 12 16 13 15 14 19 15 20 16 23 17 17 18 18 19 21 20 22 21
REMARK SMILES IDX 8 22 7 23 31 24 6 25 5 26 3 27 4 28 2 29 1 30 26 31
REMARK H PARENT 26 32 26 33
REMARK Flexibility Score: inf
ROOT
ATOM      1  C   UNL     1      19.645  33.889  12.556  1.00  0.00     0.148 A 
ATOM      2  N   UNL     1      18.915  33.647  11.440  1.00  0.00    -0.161 NA
ATOM      3  N   UNL     1      17.633  33.839  11.736  1.00  0.00    -0.241 N 
ATOM      4  C   UNL     1      17.549  34.197  13.029  1.00  0.00     0.164 A 
ATOM      5  C   UNL     1      18.790  34.244  13.589  1.00  0.00     0.097 A 
ATOM      6  C   UNL     1      18.926  34.593  14.937  1.00  0.00     0.139 A 
ATOM      7  N   UNL     1      17.783  34.873  15.632  1.00  0.00    -0.219 NA
ATOM      8  C   UNL     1      16.548  34.818  15.043  1.00  0.00     0.226 A 
ATOM      9  N   UNL     1      16.423  34.476  13.727  1.00  0.00    -0.217 NA
ENDROOT
BRANCH   1  10
ATOM     10  C   UNL     1      21.076  33.769  12.601  1.00  0.00    -0.039 C 
ATOM     11  C   UNL     1      22.276  33.673  12.638  1.00  0.00    -0.060 C 
BRANCH  11  12
ATOM     12  C   UNL     1      23.710  33.554  12.681  1.00  0.00     0.032 A 
ATOM     13  C   UNL     1      25.843  34.202  13.648  1.00  0.00     0.123 A 
ATOM     14  C   UNL     1      24.449  34.310  13.597  1.00  0.00     0.064 A 
ATOM     15  C   UNL     1      26.498  33.321  12.765  1.00  0.00     0.092 A 
ATOM     16  C   UNL     1      25.760  32.555  11.841  1.00  0.00     0.123 A 
ATOM     17  C   UNL     1      24.367  32.680  11.807  1.00  0.00     0.064 A 
BRANCH  13  18
ATOM     18  O   UNL     1      26.535  34.983  14.584  1.00  0.00    -0.497 OA
ATOM     19  C   UNL     1      27.292  36.145  14.261  1.00  0.00     0.278 C 
ENDBRANCH  13  18
BRANCH  16  20
ATOM     20  O   UNL     1      26.368  31.664  10.944  1.00  0.00    -0.497 OA
ATOM     21  C   UNL     1      27.720  31.226  11.036  1.00  0.00     0.278 C 
ENDBRANCH  16  20
ENDBRANCH  11  12
ENDBRANCH   1  10
BRANCH   3  22
ATOM     22  C   UNL     1      16.525  33.663  10.792  1.00  0.00     0.131 C 
ATOM     23  C   UNL     1      16.458  34.806   9.775  1.00  0.00     0.051 C 
ATOM     24  C   UNL     1      16.677  32.382   9.972  1.00  0.00     0.147 C 
ATOM     25  C   UNL     1      16.028  34.162   8.464  1.00  0.00     0.122 C 
ATOM     26  N   UNL     1      16.310  32.741   8.613  1.00  0.00    -0.337 N 
BRANCH  26  27
ATOM     27  C   UNL     1      15.966  31.759   7.620  1.00  0.00     0.246 C 
ATOM     28  O   UNL     1      16.687  31.632   6.594  1.00  0.00    -0.270 OA
BRANCH  27  29
ATOM     29  C   UNL     1      14.797  30.874   7.768  1.00  0.00     0.063 C 
ATOM     30  C   UNL     1      14.614  29.800   7.005  1.00  0.00     0.014 C 
ENDBRANCH  27  29
ENDBRANCH  26  27
ENDBRANCH   3  22
BRANCH   6  31
ATOM     31  N   UNL     1      20.193  34.664  15.595  1.00  0.00    -0.383 N 
ATOM     32  H   UNL     1      20.280  34.755  16.628  1.00  0.00     0.158 HD
ATOM     33  H   UNL     1      21.071  34.621  15.032  1.00  0.00     0.158 HD
ENDBRANCH   6  31
TORSDOF 8
ENDMDL
MODEL 8
REMARK VINA RESULT:    -8.227      4.972      6.806
REMARK INTER + INTRA:         -12.637
REMARK INTER:                 -12.235
REMARK INTRA:                  -0.402
REMARK UNBOUND:                -0.803
REMARK SMILES C=CC(=O)N1CC[C@H](n2nc(C#Cc3cc(OC)cc(OC)c3)c3c(N)ncnc32)C1
REMARK SMILES IDX 11 1 10 2 9 3 30 4 24 5 25 6 27 7 28 8 29 9 12 10 13 11
REMARK SMILES IDX 14 12 16 13 15 14 19 15 20 16 23 17 17 18 18 19 21 20 22 21
REMARK SMILES IDX 8 22 7 23 31 24 6 25 5 26 3 27 4 28 2 29 1 30 26 31
REMARK H PARENT 26 32 26 33
REMARK Flexibility Score: inf
ROOT
ATOM      1  C   UNL     1      17.133  35.363  15.706  1.00  0.00     0.148 A 
ATOM      2  N   UNL     1      17.892  35.077  14.621  1.00  0.00    -0.161 NA
ATOM      3  N   UNL     1      17.122  34.460  13.730  1.00  0.00    -0.241 N 
ATOM      4  C   UNL     1      15.886  34.351  14.246  1.00  0.00     0.164 A 
ATOM      5  C   UNL     1      15.841  34.907  15.490  1.00  0.00     0.097 A 
ATOM      6  C   UNL     1      14.641  34.896  16.207  1.00  0.00     0.139 A 
ATOM      7  N   UNL     1      13.556  34.317  15.611  1.00  0.00    -0.219 NA
ATOM      8  C   UNL     1      13.629  33.766  14.359  1.00  0.00     0.226 A 
ATOM      9  N   UNL     1      14.804  33.780  13.664  1.00  0.00    -0.217 NA
ENDROOT
BRANCH   1  10
ATOM     10  C   UNL     1      17.647  36.026  16.873  1.00  0.00    -0.039 C 
ATOM     11  C   UNL     1      18.083  36.582  17.848  1.00  0.00    -0.060 C 
BRANCH  11  12
ATOM     12  C   UNL     1      18.601  37.244  19.017  1.00  0.00     0.032 A 
ATOM     13  C   UNL     1      20.436  37.660  20.554  1.00  0.00     0.123 A 
ATOM     14  C   UNL     1      19.921  37.021  19.420  1.00  0.00     0.064 A 
ATOM     15  C   UNL     1      19.609  38.533  21.288  1.00  0.00     0.092 A 
ATOM     16  C   UNL     1      18.278  38.763  20.886  1.00  0.00     0.123 A 
ATOM     17  C   UNL     1      17.784  38.113  19.749  1.00  0.00     0.064 A 
BRANCH  13  18
ATOM     18  O   UNL     1      21.766  37.401  20.915  1.00  0.00    -0.497 OA
ATOM     19  C   UNL     1      22.780  36.979  20.008  1.00  0.00     0.278 C 
ENDBRANCH  13  18
BRANCH  16  20
ATOM     20  O   UNL     1      17.418  39.624  21.584  1.00  0.00    -0.497 OA
ATOM     21  C   UNL     1      17.763  40.940  22.005  1.00  0.00     0.278 C 
ENDBRANCH  16  20
ENDBRANCH  11  12
ENDBRANCH   1  10
BRANCH   3  22
ATOM     22  C   UNL     1      17.581  33.976  12.424  1.00  0.00     0.131 C 
ATOM     23  C   UNL     1      17.209  32.507  12.199  1.00  0.00     0.051 C 
ATOM     24  C   UNL     1      16.938  34.751  11.274  1.00  0.00     0.147 C 
ATOM     25  C   UNL     1      16.864  32.395  10.720  1.00  0.00     0.122 C 
ATOM     26  N   UNL     1      16.591  33.754  10.276  1.00  0.00    -0.337 N 
BRANCH  26  27
ATOM     27  C   UNL     1      16.309  34.097   8.907  1.00  0.00     0.246 C 
ATOM     28  O   UNL     1      15.700  35.169   8.647  1.00  0.00    -0.270 OA
BRANCH  27  29
ATOM     29  C   UNL     1      16.725  33.239   7.785  1.00  0.00     0.063 C 
ATOM     30  C   UNL     1      16.007  32.193   7.381  1.00  0.00     0.014 C 
ENDBRANCH  27  29
ENDBRANCH  26  27
ENDBRANCH   3  22
BRANCH   6  31
ATOM     31  N   UNL     1      14.515  35.458  17.516  1.00  0.00    -0.383 N 
ATOM     32  H   UNL     1      14.959  35.027  18.352  1.00  0.00     0.158 HD
ATOM     33  H   UNL     1      13.964  36.333  17.652  1.00  0.00     0.158 HD
ENDBRANCH   6  31
TORSDOF 8
ENDMDL
MODEL 9
REMARK VINA RESULT:    -8.223      2.122      3.114
REMARK INTER + INTRA:         -12.632
REMARK INTER:                 -11.852
REMARK INTRA:                  -0.779
REMARK UNBOUND:                -0.803
REMARK SMILES C=CC(=O)N1CC[C@H](n2nc(C#Cc3cc(OC)cc(OC)c3)c3c(N)ncnc32)C1
REMARK SMILES IDX 11 1 10 2 9 3 30 4 24 5 25 6 27 7 28 8 29 9 12 10 13 11
REMARK SMILES IDX 14 12 16 13 15 14 19 15 20 16 23 17 17 18 18 19 21 20 22 21
REMARK SMILES IDX 8 22 7 23 31 24 6 25 5 26 3 27 4 28 2 29 1 30 26 31
REMARK H PARENT 26 32 26 33
REMARK Flexibility Score: inf
ROOT
ATOM      1  C   UNL     1      21.440  33.614  12.677  1.00  0.00     0.148 A 
ATOM      2  N   UNL     1      20.569  33.124  11.762  1.00  0.00    -0.161 NA
ATOM      3  N   UNL     1      19.340  33.464  12.138  1.00  0.00    -0.241 N 
ATOM      4  C   UNL     1      19.429  34.160  13.284  1.00  0.00     0.164 A 
ATOM      5  C   UNL     1      20.732  34.283  13.664  1.00  0.00     0.097 A 
ATOM      6  C   UNL     1      21.046  34.973  14.839  1.00  0.00     0.139 A 
ATOM      7  N   UNL     1      20.008  35.497  15.558  1.00  0.00    -0.219 NA
ATOM      8  C   UNL     1      18.707  35.359  15.153  1.00  0.00     0.226 A 
ATOM      9  N   UNL     1      18.408  34.683  14.004  1.00  0.00    -0.217 NA
ENDROOT
BRANCH   1  10
ATOM     10  C   UNL     1      22.861  33.426  12.589  1.00  0.00    -0.039 C 
ATOM     11  C   UNL     1      24.053  33.264  12.511  1.00  0.00    -0.060 C 
BRANCH  11  12
ATOM     12  C   UNL     1      25.477  33.073  12.424  1.00  0.00     0.032 A 
ATOM     13  C   UNL     1      27.384  31.921  11.456  1.00  0.00     0.123 A 
ATOM     14  C   UNL     1      26.002  32.115  11.550  1.00  0.00     0.064 A 
ATOM     15  C   UNL     1      28.246  32.701  12.252  1.00  0.00     0.092 A 
ATOM     16  C   UNL     1      27.723  33.669  13.133  1.00  0.00     0.123 A 
ATOM     17  C   UNL     1      26.337  33.846  13.212  1.00  0.00     0.064 A 
BRANCH  13  18
ATOM     18  O   UNL     1      27.859  30.947  10.565  1.00  0.00    -0.497 OA
ATOM     19  C   UNL     1      29.061  30.206  10.748  1.00  0.00     0.278 C 
ENDBRANCH  13  18
BRANCH  16  20
ATOM     20  O   UNL     1      28.541  34.471  13.944  1.00  0.00    -0.497 OA
ATOM     21  C   UNL     1      28.196  35.777  14.395  1.00  0.00     0.278 C 
ENDBRANCH  16  20
ENDBRANCH  11  12
ENDBRANCH   1  10
BRANCH   3  22
ATOM     22  C   UNL     1      18.117  33.106  11.413  1.00  0.00     0.131 C 
ATOM     23  C   UNL     1      17.545  34.299  10.641  1.00  0.00     0.051 C 
ATOM     24  C   UNL     1      18.375  32.018  10.370  1.00  0.00     0.147 C 
ATOM     25  C   UNL     1      16.987  33.720   9.348  1.00  0.00     0.122 C 
ATOM     26  N   UNL     1      17.626  32.421   9.191  1.00  0.00    -0.337 N 
BRANCH  26  27
ATOM     27  C   UNL     1      17.305  31.505   8.130  1.00  0.00     0.246 C 
ATOM     28  O   UNL     1      16.224  30.858   8.172  1.00  0.00    -0.270 OA
BRANCH  27  29
ATOM     29  C   UNL     1      18.195  31.304   6.974  1.00  0.00     0.063 C 
ATOM     30  C   UNL     1      18.338  30.123   6.379  1.00  0.00     0.014 C 
ENDBRANCH  27  29
ENDBRANCH  26  27
ENDBRANCH   3  22
BRANCH   6  31
ATOM     31  N   UNL     1      22.387  35.143  15.303  1.00  0.00    -0.383 N 
ATOM     32  H   UNL     1      23.099  34.386  15.242  1.00  0.00     0.158 HD
ATOM     33  H   UNL     1      22.679  36.055  15.719  1.00  0.00     0.158 HD
ENDBRANCH   6  31
TORSDOF 8
ENDMDL
MODEL 10
REMARK VINA RESULT:    -8.221      2.713      3.479
REMARK INTER + INTRA:         -12.629
REMARK INTER:                 -11.758
REMARK INTRA:                  -0.871
REMARK UNBOUND:                -0.803
REMARK SMILES C=CC(=O)N1CC[C@H](n2nc(C#Cc3cc(OC)cc(OC)c3)c3c(N)ncnc32)C1
REMARK SMILES IDX 11 1 10 2 9 3 30 4 24 5 25 6 27 7 28 8 29 9 12 10 13 11
REMARK SMILES IDX 14 12 16 13 15 14 19 15 20 16 23 17 17 18 18 19 21 20 22 21
REMARK SMILES IDX 8 22 7 23 31 24 6 25 5 26 3 27 4 28 2 29 1 30 26 31
REMARK H PARENT 26 32 26 33
REMARK Flexibility Score: inf
ROOT
ATOM      1  C   UNL     1      18.432  34.625  14.043  1.00  0.00     0.148 A 
ATOM      2  N   UNL     1      18.111  34.357  12.755  1.00  0.00    -0.161 NA
ATOM      3  N   UNL     1      16.796  34.173  12.687  1.00  0.00    -0.241 N 
ATOM      4  C   UNL     1      16.286  34.319  13.921  1.00  0.00     0.164 A 
ATOM      5  C   UNL     1      17.277  34.606  14.812  1.00  0.00     0.097 A 
ATOM      6  C   UNL     1      16.960  34.793  16.161  1.00  0.00     0.139 A 
ATOM      7  N   UNL     1      15.646  34.675  16.521  1.00  0.00    -0.219 NA
ATOM      8  C   UNL     1      14.670  34.387  15.604  1.00  0.00     0.226 A 
ATOM      9  N   UNL     1      14.988  34.205  14.288  1.00  0.00    -0.217 NA
ENDROOT
BRANCH   1  10
ATOM     10  C   UNL     1      19.777  34.869  14.484  1.00  0.00    -0.039 C 
ATOM     11  C   UNL     1      20.904  35.079  14.854  1.00  0.00    -0.060 C 
BRANCH  11  12
ATOM     12  C   UNL     1      22.253  35.326  15.294  1.00  0.00     0.032 A 
ATOM     13  C   UNL     1      23.932  35.270  17.049  1.00  0.00     0.123 A 
ATOM     14  C   UNL     1      22.624  35.035  16.610  1.00  0.00     0.064 A 
ATOM     15  C   UNL     1      24.875  35.804  16.148  1.00  0.00     0.092 A 
ATOM     16  C   UNL     1      24.508  36.097  14.820  1.00  0.00     0.123 A 
ATOM     17  C   UNL     1      23.194  35.855  14.404  1.00  0.00     0.064 A 
BRANCH  13  18
ATOM     18  O   UNL     1      24.252  34.962  18.379  1.00  0.00    -0.497 OA
ATOM     19  C   UNL     1      23.399  34.248  19.268  1.00  0.00     0.278 C 
ENDBRANCH  13  18
BRANCH  16  20
ATOM     20  O   UNL     1      25.412  36.628  13.887  1.00  0.00    -0.497 OA
ATOM     21  C   UNL     1      25.076  36.976  12.548  1.00  0.00     0.278 C 
ENDBRANCH  16  20
ENDBRANCH  11  12
ENDBRANCH   1  10
BRANCH   3  22
ATOM     22  C   UNL     1      16.062  33.849  11.459  1.00  0.00     0.131 C 
ATOM     23  C   UNL     1      16.295  34.896  10.365  1.00  0.00     0.051 C 
ATOM     24  C   UNL     1      16.515  32.515  10.864  1.00  0.00     0.147 C 
ATOM     25  C   UNL     1      16.337  34.117   9.057  1.00  0.00     0.122 C 
ATOM     26  N   UNL     1      16.600  32.735   9.430  1.00  0.00    -0.337 N 
BRANCH  26  27
ATOM     27  C   UNL     1      16.630  31.652   8.483  1.00  0.00     0.246 C 
ATOM     28  O   UNL     1      17.618  30.869   8.465  1.00  0.00    -0.270 OA
BRANCH  27  29
ATOM     29  C   UNL     1      15.530  31.413   7.534  1.00  0.00     0.063 C 
ATOM     30  C   UNL     1      14.603  30.480   7.736  1.00  0.00     0.014 C 
ENDBRANCH  27  29
ENDBRANCH  26  27
ENDBRANCH   3  22
BRANCH   6  31
ATOM     31  N   UNL     1      17.943  35.095  17.154  1.00  0.00    -0.383 N 
ATOM     32  H   UNL     1      18.616  35.882  17.050  1.00  0.00     0.158 HD
ATOM     33  H   UNL     1      17.997  34.517  18.021  1.00  0.00     0.158 HD
ENDBRANCH   6  31
TORSDOF 8
ENDMDL
MODEL 11
REMARK VINA RESULT:    -8.118      3.346      6.872
REMARK INTER + INTRA:         -12.481
REMARK INTER:                 -11.859
REMARK INTRA:                  -0.622
REMARK UNBOUND:                -0.803
REMARK SMILES C=CC(=O)N1CC[C@H](n2nc(C#Cc3cc(OC)cc(OC)c3)c3c(N)ncnc32)C1
REMARK SMILES IDX 11 1 10 2 9 3 30 4 24 5 25 6 27 7 28 8 29 9 12 10 13 11
REMARK SMILES IDX 14 12 16 13 15 14 19 15 20 16 23 17 17 18 18 19 21 20 22 21
REMARK SMILES IDX 8 22 7 23 31 24 6 25 5 26 3 27 4 28 2 29 1 30 26 31
REMARK H PARENT 26 32 26 33
REMARK Flexibility Score: inf
ROOT
ATOM      1  C   UNL     1      19.130  33.942  13.261  1.00  0.00     0.148 A 
ATOM      2  N   UNL     1      18.534  34.604  14.282  1.00  0.00    -0.161 NA
ATOM      3  N   UNL     1      17.218  34.468  14.149  1.00  0.00    -0.241 N 
ATOM      4  C   UNL     1      16.980  33.730  13.051  1.00  0.00     0.164 A 
ATOM      5  C   UNL     1      18.153  33.373  12.457  1.00  0.00     0.097 A 
ATOM      6  C   UNL     1      18.129  32.602  11.291  1.00  0.00     0.139 A 
ATOM      7  N   UNL     1      16.905  32.240  10.800  1.00  0.00    -0.219 NA
ATOM      8  C   UNL     1      15.742  32.614  11.418  1.00  0.00     0.226 A 
ATOM      9  N   UNL     1      15.772  33.367  12.557  1.00  0.00    -0.217 NA
ENDROOT
BRANCH   1  10
ATOM     10  C   UNL     1      20.555  33.886  13.086  1.00  0.00    -0.039 C 
ATOM     11  C   UNL     1      21.749  33.840  12.934  1.00  0.00    -0.060 C 
BRANCH  11  12
ATOM     12  C   UNL     1      23.176  33.782  12.757  1.00  0.00     0.032 A 
ATOM     13  C   UNL     1      25.374  34.768  13.076  1.00  0.00     0.123 A 
ATOM     14  C   UNL     1      23.985  34.814  13.242  1.00  0.00     0.064 A 
ATOM     15  C   UNL     1      25.952  33.668  12.413  1.00  0.00     0.092 A 
ATOM     16  C   UNL     1      25.143  32.623  11.924  1.00  0.00     0.123 A 
ATOM     17  C   UNL     1      23.756  32.691  12.100  1.00  0.00     0.064 A 
BRANCH  13  18
ATOM     18  O   UNL     1      26.138  35.830  13.581  1.00  0.00    -0.497 OA
ATOM     19  C   UNL     1      26.523  35.968  14.945  1.00  0.00     0.278 C 
ENDBRANCH  13  18
BRANCH  16  20
ATOM     20  O   UNL     1      25.673  31.507  11.259  1.00  0.00    -0.497 OA
ATOM     21  C   UNL     1      27.052  31.336  10.945  1.00  0.00     0.278 C 
ENDBRANCH  16  20
ENDBRANCH  11  12
ENDBRANCH   1  10
BRANCH   3  22
ATOM     22  C   UNL     1      16.224  35.055  15.054  1.00  0.00     0.131 C 
ATOM     23  C   UNL     1      15.331  33.983  15.688  1.00  0.00     0.051 C 
ATOM     24  C   UNL     1      16.884  35.792  16.219  1.00  0.00     0.147 C 
ATOM     25  C   UNL     1      15.069  34.459  17.110  1.00  0.00     0.122 C 
ATOM     26  N   UNL     1      16.109  35.437  17.396  1.00  0.00    -0.337 N 
BRANCH  26  27
ATOM     27  C   UNL     1      16.168  36.195  18.617  1.00  0.00     0.246 C 
ATOM     28  O   UNL     1      15.108  36.667  19.108  1.00  0.00    -0.270 OA
BRANCH  27  29
ATOM     29  C   UNL     1      17.435  36.430  19.331  1.00  0.00     0.063 C 
ATOM     30  C   UNL     1      18.041  37.614  19.339  1.00  0.00     0.014 C 
ENDBRANCH  27  29
ENDBRANCH  26  27
ENDBRANCH   3  22
BRANCH   6  31
ATOM     31  N   UNL     1      19.316  32.188  10.610  1.00  0.00    -0.383 N 
ATOM     32  H   UNL     1      19.942  32.861  10.123  1.00  0.00     0.158 HD
ATOM     33  H   UNL     1      19.579  31.178  10.595  1.00  0.00     0.158 HD
ENDBRANCH   6  31
TORSDOF 8
ENDMDL
MODEL 12
REMARK VINA RESULT:    -8.114      3.335      6.502
REMARK INTER + INTRA:         -12.474
REMARK INTER:                 -11.822
REMARK INTRA:                  -0.652
REMARK UNBOUND:                -0.803
REMARK SMILES C=CC(=O)N1CC[C@H](n2nc(C#Cc3cc(OC)cc(OC)c3)c3c(N)ncnc32)C1
REMARK SMILES IDX 11 1 10 2 9 3 30 4 24 5 25 6 27 7 28 8 29 9 12 10 13 11
REMARK SMILES IDX 14 12 16 13 15 14 19 15 20 16 23 17 17 18 18 19 21 20 22 21
REMARK SMILES IDX 8 22 7 23 31 24 6 25 5 26 3 27 4 28 2 29 1 30 26 31
REMARK H PARENT 26 32 26 33
REMARK Flexibility Score: inf
ROOT
ATOM      1  C   UNL     1      19.093  33.957  13.229  1.00  0.00     0.148 A 
ATOM      2  N   UNL     1      18.479  34.587  14.259  1.00  0.00    -0.161 NA
ATOM      3  N   UNL     1      17.167  34.433  14.114  1.00  0.00    -0.241 N 
ATOM      4  C   UNL     1      16.948  33.716  12.999  1.00  0.00     0.164 A 
ATOM      5  C   UNL     1      18.131  33.390  12.405  1.00  0.00     0.097 A 
ATOM      6  C   UNL     1      18.128  32.644  11.223  1.00  0.00     0.139 A 
ATOM      7  N   UNL     1      16.914  32.274  10.715  1.00  0.00    -0.219 NA
ATOM      8  C   UNL     1      15.740  32.615  11.333  1.00  0.00     0.226 A 
ATOM      9  N   UNL     1      15.750  33.344  12.488  1.00  0.00    -0.217 NA
ENDROOT
BRANCH   1  10
ATOM     10  C   UNL     1      20.520  33.928  13.063  1.00  0.00    -0.039 C 
ATOM     11  C   UNL     1      21.716  33.908  12.921  1.00  0.00    -0.060 C 
BRANCH  11  12
ATOM     12  C   UNL     1      23.145  33.878  12.752  1.00  0.00     0.032 A 
ATOM     13  C   UNL     1      25.132  32.802  11.859  1.00  0.00     0.123 A 
ATOM     14  C   UNL     1      23.744  32.840  12.031  1.00  0.00     0.064 A 
ATOM     15  C   UNL     1      25.924  33.822  12.421  1.00  0.00     0.092 A 
ATOM     16  C   UNL     1      25.327  34.872  13.147  1.00  0.00     0.123 A 
ATOM     17  C   UNL     1      23.937  34.890  13.308  1.00  0.00     0.064 A 
BRANCH  13  18
ATOM     18  O   UNL     1      25.681  31.738  11.128  1.00  0.00    -0.497 OA
ATOM     19  C   UNL     1      27.073  31.445  11.056  1.00  0.00     0.278 C 
ENDBRANCH  13  18
BRANCH  16  20
ATOM     20  O   UNL     1      26.075  35.910  13.723  1.00  0.00    -0.497 OA
ATOM     21  C   UNL     1      27.464  35.830  14.026  1.00  0.00     0.278 C 
ENDBRANCH  16  20
ENDBRANCH  11  12
ENDBRANCH   1  10
BRANCH   3  22
ATOM     22  C   UNL     1      16.157  34.984  15.024  1.00  0.00     0.131 C 
ATOM     23  C   UNL     1      15.318  33.880  15.675  1.00  0.00     0.051 C 
ATOM     24  C   UNL     1      16.796  35.759  16.176  1.00  0.00     0.147 C 
ATOM     25  C   UNL     1      15.049  34.357  17.097  1.00  0.00     0.122 C 
ATOM     26  N   UNL     1      16.049  35.380  17.364  1.00  0.00    -0.337 N 
BRANCH  26  27
ATOM     27  C   UNL     1      16.086  36.151  18.578  1.00  0.00     0.246 C 
ATOM     28  O   UNL     1      15.020  36.638  19.039  1.00  0.00    -0.270 OA
BRANCH  27  29
ATOM     29  C   UNL     1      17.338  36.380  19.320  1.00  0.00     0.063 C 
ATOM     30  C   UNL     1      18.011  37.526  19.248  1.00  0.00     0.014 C 
ENDBRANCH  27  29
ENDBRANCH  26  27
ENDBRANCH   3  22
BRANCH   6  31
ATOM     31  N   UNL     1      19.326  32.265  10.542  1.00  0.00    -0.383 N 
ATOM     32  H   UNL     1      19.827  32.908   9.896  1.00  0.00     0.158 HD
ATOM     33  H   UNL     1      19.726  31.312  10.691  1.00  0.00     0.158 HD
ENDBRANCH   6  31
TORSDOF 8
ENDMDL
MODEL 13
REMARK VINA RESULT:    -8.111      2.321      4.228
REMARK INTER + INTRA:         -12.470
REMARK INTER:                 -11.841
REMARK INTRA:                  -0.629
REMARK UNBOUND:                -0.803
REMARK SMILES C=CC(=O)N1CC[C@H](n2nc(C#Cc3cc(OC)cc(OC)c3)c3c(N)ncnc32)C1
REMARK SMILES IDX 11 1 10 2 9 3 30 4 24 5 25 6 27 7 28 8 29 9 12 10 13 11
REMARK SMILES IDX 14 12 16 13 15 14 19 15 20 16 23 17 17 18 18 19 21 20 22 21
REMARK SMILES IDX 8 22 7 23 31 24 6 25 5 26 3 27 4 28 2 29 1 30 26 31
REMARK H PARENT 26 32 26 33
REMARK Flexibility Score: inf
ROOT
ATOM      1  C   UNL     1      21.919  33.497  12.723  1.00  0.00     0.148 A 
ATOM      2  N   UNL     1      20.978  32.968  11.905  1.00  0.00    -0.161 NA
ATOM      3  N   UNL     1      19.787  33.393  12.316  1.00  0.00    -0.241 N 
ATOM      4  C   UNL     1      19.969  34.182  13.388  1.00  0.00     0.164 A 
ATOM      5  C   UNL     1      21.296  34.281  13.684  1.00  0.00     0.097 A 
ATOM      6  C   UNL     1      21.705  35.056  14.773  1.00  0.00     0.139 A 
ATOM      7  N   UNL     1      20.732  35.687  15.497  1.00  0.00    -0.219 NA
ATOM      8  C   UNL     1      19.405  35.571  15.177  1.00  0.00     0.226 A 
ATOM      9  N   UNL     1      19.013  34.811  14.112  1.00  0.00    -0.217 NA
ENDROOT
BRANCH   1  10
ATOM     10  C   UNL     1      23.324  33.240  12.575  1.00  0.00    -0.039 C 
ATOM     11  C   UNL     1      24.503  33.026  12.446  1.00  0.00    -0.060 C 
BRANCH  11  12
ATOM     12  C   UNL     1      25.911  32.767  12.295  1.00  0.00     0.032 A 
ATOM     13  C   UNL     1      28.215  33.301  12.850  1.00  0.00     0.123 A 
ATOM     14  C   UNL     1      26.844  33.544  12.989  1.00  0.00     0.064 A 
ATOM     15  C   UNL     1      28.649  32.262  12.003  1.00  0.00     0.092 A 
ATOM     16  C   UNL     1      27.713  31.474  11.303  1.00  0.00     0.123 A 
ATOM     17  C   UNL     1      26.347  31.736  11.455  1.00  0.00     0.064 A 
BRANCH  13  18
ATOM     18  O   UNL     1      29.109  34.110  13.567  1.00  0.00    -0.497 OA
ATOM     19  C   UNL     1      30.516  34.141  13.353  1.00  0.00     0.278 C 
ENDBRANCH  13  18
BRANCH  16  20
ATOM     20  O   UNL     1      28.097  30.428  10.449  1.00  0.00    -0.497 OA
ATOM     21  C   UNL     1      29.338  29.735  10.533  1.00  0.00     0.278 C 
ENDBRANCH  16  20
ENDBRANCH  11  12
ENDBRANCH   1  10
BRANCH   3  22
ATOM     22  C   UNL     1      18.511  33.027  11.693  1.00  0.00     0.131 C 
ATOM     23  C   UNL     1      17.773  34.253  11.146  1.00  0.00     0.051 C 
ATOM     24  C   UNL     1      18.710  32.092  10.500  1.00  0.00     0.147 C 
ATOM     25  C   UNL     1      17.102  33.786   9.861  1.00  0.00     0.122 C 
ATOM     26  N   UNL     1      17.800  32.569   9.473  1.00  0.00    -0.337 N 
BRANCH  26  27
ATOM     27  C   UNL     1      17.412  31.760   8.348  1.00  0.00     0.246 C 
ATOM     28  O   UNL     1      16.316  31.139   8.377  1.00  0.00    -0.270 OA
BRANCH  27  29
ATOM     29  C   UNL     1      18.252  31.642   7.144  1.00  0.00     0.063 C 
ATOM     30  C   UNL     1      18.409  30.492   6.493  1.00  0.00     0.014 C 
ENDBRANCH  27  29
ENDBRANCH  26  27
ENDBRANCH   3  22
BRANCH   6  31
ATOM     31  N   UNL     1      23.076  35.208  15.146  1.00  0.00    -0.383 N 
ATOM     32  H   UNL     1      23.364  35.605  16.064  1.00  0.00     0.158 HD
ATOM     33  H   UNL     1      23.828  34.912  14.485  1.00  0.00     0.158 HD
ENDBRANCH   6  31
TORSDOF 8
ENDMDL
MODEL 14
REMARK VINA RESULT:    -7.953      2.052      2.694
REMARK INTER + INTRA:         -12.244
REMARK INTER:                 -11.408
REMARK INTRA:                  -0.836
REMARK UNBOUND:                -0.803
REMARK SMILES C=CC(=O)N1CC[C@H](n2nc(C#Cc3cc(OC)cc(OC)c3)c3c(N)ncnc32)C1
REMARK SMILES IDX 11 1 10 2 9 3 30 4 24 5 25 6 27 7 28 8 29 9 12 10 13 11
REMARK SMILES IDX 14 12 16 13 15 14 19 15 20 16 23 17 17 18 18 19 21 20 22 21
REMARK SMILES IDX 8 22 7 23 31 24 6 25 5 26 3 27 4 28 2 29 1 30 26 31
REMARK H PARENT 26 32 26 33
REMARK Flexibility Score: inf
ROOT
ATOM      1  C   UNL     1      18.512  34.615  13.721  1.00  0.00     0.148 A 
ATOM      2  N   UNL     1      18.095  34.416  12.448  1.00  0.00    -0.161 NA
ATOM      3  N   UNL     1      16.785  34.195  12.472  1.00  0.00    -0.241 N 
ATOM      4  C   UNL     1      16.372  34.250  13.750  1.00  0.00     0.164 A 
ATOM      5  C   UNL     1      17.424  34.513  14.576  1.00  0.00     0.097 A 
ATOM      6  C   UNL     1      17.211  34.608  15.955  1.00  0.00     0.139 A 
ATOM      7  N   UNL     1      15.934  34.428  16.409  1.00  0.00    -0.219 NA
ATOM      8  C   UNL     1      14.896  34.165  15.555  1.00  0.00     0.226 A 
ATOM      9  N   UNL     1      15.111  34.073  14.210  1.00  0.00    -0.217 NA
ENDROOT
BRANCH   1  10
ATOM     10  C   UNL     1      19.881  34.874  14.069  1.00  0.00    -0.039 C 
ATOM     11  C   UNL     1      21.030  35.087  14.363  1.00  0.00    -0.060 C 
BRANCH  11  12
ATOM     12  C   UNL     1      22.402  35.345  14.714  1.00  0.00     0.032 A 
ATOM     13  C   UNL     1      24.761  34.801  14.506  1.00  0.00     0.123 A 
ATOM     14  C   UNL     1      23.424  34.559  14.173  1.00  0.00     0.064 A 
ATOM     15  C   UNL     1      25.070  35.849  15.396  1.00  0.00     0.092 A 
ATOM     16  C   UNL     1      24.045  36.647  15.943  1.00  0.00     0.123 A 
ATOM     17  C   UNL     1      22.715  36.385  15.597  1.00  0.00     0.064 A 
BRANCH  13  18
ATOM     18  O   UNL     1      25.747  33.983  13.936  1.00  0.00    -0.497 OA
ATOM     19  C   UNL     1      26.768  33.319  14.674  1.00  0.00     0.278 C 
ENDBRANCH  13  18
BRANCH  16  20
ATOM     20  O   UNL     1      24.304  37.702  16.832  1.00  0.00    -0.497 OA
ATOM     21  C   UNL     1      24.205  37.604  18.249  1.00  0.00     0.278 C 
ENDBRANCH  16  20
ENDBRANCH  11  12
ENDBRANCH   1  10
BRANCH   3  22
ATOM     22  C   UNL     1      15.963  33.922  11.288  1.00  0.00     0.131 C 
ATOM     23  C   UNL     1      16.192  34.963  10.187  1.00  0.00     0.051 C 
ATOM     24  C   UNL     1      16.303  32.569  10.662  1.00  0.00     0.147 C 
ATOM     25  C   UNL     1      16.113  34.193   8.875  1.00  0.00     0.122 C 
ATOM     26  N   UNL     1      16.316  32.795   9.227  1.00  0.00    -0.337 N 
BRANCH  26  27
ATOM     27  C   UNL     1      16.229  31.719   8.275  1.00  0.00     0.246 C 
ATOM     28  O   UNL     1      15.421  30.773   8.478  1.00  0.00    -0.270 OA
BRANCH  27  29
ATOM     29  C   UNL     1      17.048  31.690   7.051  1.00  0.00     0.063 C 
ATOM     30  C   UNL     1      18.294  31.224   7.036  1.00  0.00     0.014 C 
ENDBRANCH  27  29
ENDBRANCH  26  27
ENDBRANCH   3  22
BRANCH   6  31
ATOM     31  N   UNL     1      18.262  34.881  16.884  1.00  0.00    -0.383 N 
ATOM     32  H   UNL     1      19.264  34.893  16.604  1.00  0.00     0.158 HD
ATOM     33  H   UNL     1      18.032  35.079  17.883  1.00  0.00     0.158 HD
ENDBRANCH   6  31
TORSDOF 8
ENDMDL
MODEL 15
REMARK VINA RESULT:    -7.717      3.705      9.570
REMARK INTER + INTRA:         -11.904
REMARK INTER:                 -11.340
REMARK INTRA:                  -0.563
REMARK UNBOUND:                -0.803
REMARK SMILES C=CC(=O)N1CC[C@H](n2nc(C#Cc3cc(OC)cc(OC)c3)c3c(N)ncnc32)C1
REMARK SMILES IDX 11 1 10 2 9 3 30 4 24 5 25 6 27 7 28 8 29 9 12 10 13 11
REMARK SMILES IDX 14 12 16 13 15 14 19 15 20 16 23 17 17 18 18 19 21 20 22 21
REMARK SMILES IDX 8 22 7 23 31 24 6 25 5 26 3 27 4 28 2 29 1 30 26 31
REMARK H PARENT 26 32 26 33
REMARK Flexibility Score: inf
ROOT
ATOM      1  C   UNL     1      23.003  34.349  13.488  1.00  0.00     0.148 A 
ATOM      2  N   UNL     1      24.140  33.796  13.000  1.00  0.00    -0.161 NA
ATOM      3  N   UNL     1      25.169  34.320  13.658  1.00  0.00    -0.241 N 
ATOM      4  C   UNL     1      24.691  35.200  14.554  1.00  0.00     0.164 A 
ATOM      5  C   UNL     1      23.330  35.253  14.487  1.00  0.00     0.097 A 
ATOM      6  C   UNL     1      22.631  36.115  15.337  1.00  0.00     0.139 A 
ATOM      7  N   UNL     1      23.363  36.873  16.207  1.00  0.00    -0.219 NA
ATOM      8  C   UNL     1      24.730  36.799  16.254  1.00  0.00     0.226 A 
ATOM      9  N   UNL     1      25.407  35.956  15.420  1.00  0.00    -0.217 NA
ENDROOT
BRANCH   1  10
ATOM     10  C   UNL     1      21.694  34.017  12.997  1.00  0.00    -0.039 C 
ATOM     11  C   UNL     1      20.598  33.741  12.581  1.00  0.00    -0.060 C 
BRANCH  11  12
ATOM     12  C   UNL     1      19.286  33.411  12.088  1.00  0.00     0.032 A 
ATOM     13  C   UNL     1      17.876  32.322  10.436  1.00  0.00     0.123 A 
ATOM     14  C   UNL     1      19.146  32.649  10.924  1.00  0.00     0.064 A 
ATOM     15  C   UNL     1      16.735  32.769  11.131  1.00  0.00     0.092 A 
ATOM     16  C   UNL     1      16.869  33.535  12.306  1.00  0.00     0.123 A 
ATOM     17  C   UNL     1      18.149  33.852  12.775  1.00  0.00     0.064 A 
BRANCH  13  18
ATOM     18  O   UNL     1      17.792  31.557   9.264  1.00  0.00    -0.497 OA
ATOM     19  C   UNL     1      17.095  31.958   8.089  1.00  0.00     0.278 C 
ENDBRANCH  13  18
BRANCH  16  20
ATOM     20  O   UNL     1      15.762  34.001  13.033  1.00  0.00    -0.497 OA
ATOM     21  C   UNL     1      15.808  34.408  14.397  1.00  0.00     0.278 C 
ENDBRANCH  16  20
ENDBRANCH  11  12
ENDBRANCH   1  10
BRANCH   3  22
ATOM     22  C   UNL     1      26.575  33.986  13.409  1.00  0.00     0.131 C 
ATOM     23  C   UNL     1      27.276  33.497  14.681  1.00  0.00     0.051 C 
ATOM     24  C   UNL     1      26.716  32.854  12.391  1.00  0.00     0.147 C 
ATOM     25  C   UNL     1      28.235  32.406  14.224  1.00  0.00     0.122 C 
ATOM     26  N   UNL     1      27.760  31.987  12.913  1.00  0.00    -0.337 N 
BRANCH  26  27
ATOM     27  C   UNL     1      28.447  31.026  12.093  1.00  0.00     0.246 C 
ATOM     28  O   UNL     1      28.181  29.800  12.216  1.00  0.00    -0.270 OA
BRANCH  27  29
ATOM     29  C   UNL     1      29.449  31.427  11.091  1.00  0.00     0.063 C 
ATOM     30  C   UNL     1      30.426  30.615  10.694  1.00  0.00     0.014 C 
ENDBRANCH  27  29
ENDBRANCH  26  27
ENDBRANCH   3  22
BRANCH   6  31
ATOM     31  N   UNL     1      21.205  36.227  15.325  1.00  0.00    -0.383 N 
ATOM     32  H   UNL     1      20.606  35.650  14.700  1.00  0.00     0.158 HD
ATOM     33  H   UNL     1      20.734  36.906  15.963  1.00  0.00     0.158 HD
ENDBRANCH   6  31
TORSDOF 8
ENDMDL
