MODEL 1
REMARK VINA RESULT:    -9.202      0.000      0.000
REMARK INTER + INTRA:         -15.791
REMARK INTER:                 -14.313
REMARK INTRA:                  -1.478
REMARK UNBOUND:                -1.478
REMARK SMILES COc1ccc(CN2C3CC2CN(c2ccc(-c4cc(OCC(C)(C)O)cn5ncc(C#N)c45)cn2)C3)cn1
REMARK SMILES IDX 18 1 19 2 20 3 27 4 28 5 29 6 30 7 31 8 34 9 17 10 14 11
REMARK SMILES IDX 15 12 36 13 16 14 35 15 13 16 8 17 11 18 9 19 10 20 12 21
REMARK SMILES IDX 37 22 7 23 6 24 3 25 39 26 4 27 38 28 5 29 2 30 1 31 21 32
REMARK SMILES IDX 22 33 23 34 24 35 25 36 26 37 32 39 33 40
REMARK H PARENT 26 38
REMARK Flexibility Score: inf
ROOT
ATOM      1  C   UNL     1      18.063  33.529  13.459  1.00  0.00     0.014 A 
ATOM      2  C   UNL     1      17.725  32.954  12.220  1.00  0.00     0.059 A 
ATOM      3  C   UNL     1      16.384  32.872  11.797  1.00  0.00     0.138 A 
ATOM      4  C   UNL     1      15.373  33.366  12.650  1.00  0.00     0.159 A 
ATOM      5  N   UNL     1      15.735  33.897  13.846  1.00  0.00    -0.235 N 
ATOM      6  N   UNL     1      14.907  34.373  14.762  1.00  0.00    -0.175 NA
ATOM      7  C   UNL     1      15.663  34.782  15.804  1.00  0.00     0.155 A 
ATOM      8  C   UNL     1      17.002  34.555  15.525  1.00  0.00     0.098 A 
ATOM      9  C   UNL     1      17.008  33.991  14.261  1.00  0.00     0.092 A 
ENDROOT
BRANCH   1  10
ATOM     10  C   UNL     1      19.479  33.666  13.846  1.00  0.00     0.003 A 
ATOM     11  C   UNL     1      22.173  33.954  14.529  1.00  0.00     0.128 A 
ATOM     12  C   UNL     1      21.511  32.735  14.780  1.00  0.00     0.047 A 
ATOM     13  N   UNL     1      21.476  34.974  13.949  1.00  0.00    -0.239 NA
ATOM     14  C   UNL     1      20.166  32.596  14.431  1.00  0.00     0.014 A 
ATOM     15  C   UNL     1      20.168  34.861  13.606  1.00  0.00     0.122 A 
BRANCH  11  16
ATOM     16  N   UNL     1      23.565  34.146  14.863  1.00  0.00    -0.353 N 
ATOM     17  N   UNL     1      26.229  34.026  14.492  1.00  0.00    -0.289 NA
ATOM     18  C   UNL     1      25.773  33.468  15.774  1.00  0.00     0.078 C 
ATOM     19  C   UNL     1      25.747  35.321  15.001  1.00  0.00     0.078 C 
ATOM     20  C   UNL     1      25.745  34.837  16.448  1.00  0.00     0.042 C 
ATOM     21  C   UNL     1      24.305  33.040  15.541  1.00  0.00     0.137 C 
ATOM     22  C   UNL     1      24.271  35.425  14.550  1.00  0.00     0.137 C 
BRANCH  17  23
ATOM     23  C   UNL     1      27.702  33.985  14.378  1.00  0.00     0.122 C 
BRANCH  23  24
ATOM     24  C   UNL     1      28.114  32.786  13.570  1.00  0.00    -0.015 A 
ATOM     25  C   UNL     1      28.844  30.515  12.130  1.00  0.00     0.212 A 
ATOM     26  N   UNL     1      29.228  30.671  13.429  1.00  0.00    -0.222 NA
ATOM     27  C   UNL     1      28.078  31.506  11.511  1.00  0.00     0.069 A 
ATOM     28  C   UNL     1      28.885  31.768  14.153  1.00  0.00     0.120 A 
ATOM     29  C   UNL     1      27.708  32.642  12.236  1.00  0.00     0.012 A 
BRANCH  25  30
ATOM     30  O   UNL     1      29.203  29.373  11.408  1.00  0.00    -0.481 OA
ATOM     31  C   UNL     1      29.255  29.348   9.986  1.00  0.00     0.280 C 
ENDBRANCH  25  30
ENDBRANCH  23  24
ENDBRANCH  17  23
ENDBRANCH  11  16
ENDBRANCH   1  10
BRANCH   3  32
ATOM     32  O   UNL     1      16.119  32.316  10.533  1.00  0.00    -0.489 OA
BRANCH  32  33
ATOM     33  C   UNL     1      16.520  32.861   9.274  1.00  0.00     0.264 C 
BRANCH  33  34
ATOM     34  C   UNL     1      17.228  31.805   8.393  1.00  0.00     0.093 C 
ATOM     35  C   UNL     1      16.163  30.945   7.685  1.00  0.00     0.045 C 
ATOM     36  C   UNL     1      18.110  32.510   7.344  1.00  0.00     0.045 C 
BRANCH  34  37
ATOM     37  O   UNL     1      18.027  30.985   9.212  1.00  0.00    -0.387 OA
ATOM     38  H   UNL     1      18.966  31.058   8.898  1.00  0.00     0.211 HD
ENDBRANCH  34  37
ENDBRANCH  33  34
ENDBRANCH  32  33
ENDBRANCH   3  32
BRANCH   8  39
ATOM     39  C   UNL     1      18.107  34.804  16.412  1.00  0.00     0.103 C 
ATOM     40  N   UNL     1      18.995  35.004  17.126  1.00  0.00    -0.192 NA
ENDBRANCH   8  39
TORSDOF 10
ENDMDL
MODEL 2
REMARK VINA RESULT:    -9.162      1.125      1.483
REMARK INTER + INTRA:         -15.728
REMARK INTER:                 -14.158
REMARK INTRA:                  -1.571
REMARK UNBOUND:                -1.478
REMARK SMILES COc1ccc(CN2C3CC2CN(c2ccc(-c4cc(OCC(C)(C)O)cn5ncc(C#N)c45)cn2)C3)cn1
REMARK SMILES IDX 18 1 19 2 20 3 27 4 28 5 29 6 30 7 31 8 34 9 17 10 14 11
REMARK SMILES IDX 15 12 36 13 16 14 35 15 13 16 8 17 11 18 9 19 10 20 12 21
REMARK SMILES IDX 37 22 7 23 6 24 3 25 39 26 4 27 38 28 5 29 2 30 1 31 21 32
REMARK SMILES IDX 22 33 23 34 24 35 25 36 26 37 32 39 33 40
REMARK H PARENT 26 38
REMARK Flexibility Score: inf
ROOT
ATOM      1  C   UNL     1      18.152  34.262  14.503  1.00  0.00     0.014 A 
ATOM      2  C   UNL     1      17.633  34.090  13.206  1.00  0.00     0.059 A 
ATOM      3  C   UNL     1      16.245  34.067  12.974  1.00  0.00     0.138 A 
ATOM      4  C   UNL     1      15.371  34.204  14.075  1.00  0.00     0.159 A 
ATOM      5  N   UNL     1      15.906  34.348  15.314  1.00  0.00    -0.235 N 
ATOM      6  N   UNL     1      15.223  34.458  16.442  1.00  0.00    -0.175 NA
ATOM      7  C   UNL     1      16.126  34.561  17.442  1.00  0.00     0.155 A 
ATOM      8  C   UNL     1      17.408  34.514  16.918  1.00  0.00     0.098 A 
ATOM      9  C   UNL     1      17.227  34.381  15.553  1.00  0.00     0.092 A 
ENDROOT
BRANCH   1  10
ATOM     10  C   UNL     1      19.608  34.354  14.709  1.00  0.00     0.003 A 
ATOM     11  C   UNL     1      22.366  34.486  15.140  1.00  0.00     0.128 A 
ATOM     12  C   UNL     1      21.621  35.673  14.989  1.00  0.00     0.047 A 
ATOM     13  N   UNL     1      21.715  33.288  15.077  1.00  0.00    -0.239 NA
ATOM     14  C   UNL     1      20.242  35.600  14.779  1.00  0.00     0.014 A 
ATOM     15  C   UNL     1      20.376  33.195  14.870  1.00  0.00     0.122 A 
BRANCH  11  16
ATOM     16  N   UNL     1      23.792  34.507  15.367  1.00  0.00    -0.353 N 
ATOM     17  N   UNL     1      26.397  34.320  14.711  1.00  0.00    -0.289 NA
ATOM     18  C   UNL     1      26.005  33.499  15.866  1.00  0.00     0.078 C 
ATOM     19  C   UNL     1      26.067  35.481  15.554  1.00  0.00     0.078 C 
ATOM     20  C   UNL     1      26.147  34.664  16.840  1.00  0.00     0.042 C 
ATOM     21  C   UNL     1      24.492  33.229  15.689  1.00  0.00     0.137 C 
ATOM     22  C   UNL     1      24.572  35.779  15.292  1.00  0.00     0.137 C 
BRANCH  17  23
ATOM     23  C   UNL     1      27.846  34.218  14.442  1.00  0.00     0.122 C 
BRANCH  23  24
ATOM     24  C   UNL     1      28.128  32.976  13.645  1.00  0.00    -0.015 A 
ATOM     25  C   UNL     1      28.620  30.626  12.229  1.00  0.00     0.212 A 
ATOM     26  N   UNL     1      29.145  30.814  13.474  1.00  0.00    -0.222 NA
ATOM     27  C   UNL     1      27.829  31.624  11.655  1.00  0.00     0.069 A 
ATOM     28  C   UNL     1      28.920  31.950  14.185  1.00  0.00     0.120 A 
ATOM     29  C   UNL     1      27.578  32.799  12.367  1.00  0.00     0.012 A 
BRANCH  25  30
ATOM     30  O   UNL     1      28.861  29.445  11.521  1.00  0.00    -0.481 OA
ATOM     31  C   UNL     1      29.320  29.437  10.174  1.00  0.00     0.280 C 
ENDBRANCH  25  30
ENDBRANCH  23  24
ENDBRANCH  17  23
ENDBRANCH  11  16
ENDBRANCH   1  10
BRANCH   3  32
ATOM     32  O   UNL     1      15.796  33.925  11.649  1.00  0.00    -0.489 OA
BRANCH  32  33
ATOM     33  C   UNL     1      16.537  34.249  10.471  1.00  0.00     0.264 C 
BRANCH  33  34
ATOM     34  C   UNL     1      16.846  32.991   9.626  1.00  0.00     0.093 C 
ATOM     35  C   UNL     1      16.682  33.335   8.132  1.00  0.00     0.045 C 
ATOM     36  C   UNL     1      18.289  32.524   9.897  1.00  0.00     0.045 C 
BRANCH  34  37
ATOM     37  O   UNL     1      15.943  31.970   9.974  1.00  0.00    -0.387 OA
ATOM     38  H   UNL     1      15.655  31.515   9.140  1.00  0.00     0.211 HD
ENDBRANCH  34  37
ENDBRANCH  33  34
ENDBRANCH  32  33
ENDBRANCH   3  32
BRANCH   8  39
ATOM     39  C   UNL     1      18.634  34.535  17.672  1.00  0.00     0.103 C 
ATOM     40  N   UNL     1      19.619  34.551  18.277  1.00  0.00    -0.192 NA
ENDBRANCH   8  39
TORSDOF 10
ENDMDL
MODEL 3
REMARK VINA RESULT:    -8.831      2.411     10.098
REMARK INTER + INTRA:         -15.214
REMARK INTER:                 -14.023
REMARK INTRA:                  -1.191
REMARK UNBOUND:                -1.478
REMARK SMILES COc1ccc(CN2C3CC2CN(c2ccc(-c4cc(OCC(C)(C)O)cn5ncc(C#N)c45)cn2)C3)cn1
REMARK SMILES IDX 18 1 19 2 20 3 27 4 28 5 29 6 30 7 31 8 34 9 17 10 14 11
REMARK SMILES IDX 15 12 36 13 16 14 35 15 13 16 8 17 11 18 9 19 10 20 12 21
REMARK SMILES IDX 37 22 7 23 6 24 3 25 39 26 4 27 38 28 5 29 2 30 1 31 21 32
REMARK SMILES IDX 22 33 23 34 24 35 25 36 26 37 32 39 33 40
REMARK H PARENT 26 38
REMARK Flexibility Score: inf
ROOT
ATOM      1  C   UNL     1      25.598  33.433  14.211  1.00  0.00     0.014 A 
ATOM      2  C   UNL     1      26.548  32.504  13.746  1.00  0.00     0.059 A 
ATOM      3  C   UNL     1      27.880  32.533  14.203  1.00  0.00     0.138 A 
ATOM      4  C   UNL     1      28.256  33.527  15.133  1.00  0.00     0.159 A 
ATOM      5  N   UNL     1      27.318  34.418  15.545  1.00  0.00    -0.235 N 
ATOM      6  N   UNL     1      27.521  35.420  16.386  1.00  0.00    -0.175 NA
ATOM      7  C   UNL     1      26.346  36.074  16.513  1.00  0.00     0.155 A 
ATOM      8  C   UNL     1      25.383  35.458  15.728  1.00  0.00     0.098 A 
ATOM      9  C   UNL     1      26.042  34.400  15.126  1.00  0.00     0.092 A 
ENDROOT
BRANCH   1  10
ATOM     10  C   UNL     1      24.195  33.337  13.771  1.00  0.00     0.003 A 
ATOM     11  C   UNL     1      21.537  33.211  12.920  1.00  0.00     0.128 A 
ATOM     12  C   UNL     1      21.922  32.572  14.116  1.00  0.00     0.047 A 
ATOM     13  N   UNL     1      22.479  33.885  12.201  1.00  0.00    -0.239 NA
ATOM     14  C   UNL     1      23.252  32.644  14.539  1.00  0.00     0.014 A 
ATOM     15  C   UNL     1      23.777  33.964  12.591  1.00  0.00     0.122 A 
BRANCH  11  16
ATOM     16  N   UNL     1      20.173  33.173  12.444  1.00  0.00    -0.353 N 
ATOM     17  N   UNL     1      18.154  33.584  10.711  1.00  0.00    -0.289 NA
ATOM     18  C   UNL     1      17.898  34.091  12.067  1.00  0.00     0.078 C 
ATOM     19  C   UNL     1      18.163  32.245  11.323  1.00  0.00     0.078 C 
ATOM     20  C   UNL     1      17.430  32.729  12.570  1.00  0.00     0.042 C 
ATOM     21  C   UNL     1      19.292  34.355  12.682  1.00  0.00     0.137 C 
ATOM     22  C   UNL     1      19.632  31.979  11.728  1.00  0.00     0.137 C 
BRANCH  17  23
ATOM     23  C   UNL     1      16.987  33.787   9.828  1.00  0.00     0.122 C 
BRANCH  23  24
ATOM     24  C   UNL     1      16.828  32.602   8.917  1.00  0.00    -0.015 A 
ATOM     25  C   UNL     1      16.466  30.438   7.199  1.00  0.00     0.212 A 
ATOM     26  N   UNL     1      15.489  30.802   8.079  1.00  0.00    -0.222 NA
ATOM     27  C   UNL     1      17.663  31.156   7.159  1.00  0.00     0.069 A 
ATOM     28  C   UNL     1      15.641  31.853   8.927  1.00  0.00     0.120 A 
ATOM     29  C   UNL     1      17.843  32.244   8.017  1.00  0.00     0.012 A 
BRANCH  25  30
ATOM     30  O   UNL     1      16.282  29.357   6.331  1.00  0.00    -0.481 OA
ATOM     31  C   UNL     1      15.043  28.667   6.217  1.00  0.00     0.280 C 
ENDBRANCH  25  30
ENDBRANCH  23  24
ENDBRANCH  17  23
ENDBRANCH  11  16
ENDBRANCH   1  10
BRANCH   3  32
ATOM     32  O   UNL     1      28.768  31.555  13.722  1.00  0.00    -0.489 OA
BRANCH  32  33
ATOM     33  C   UNL     1      29.383  31.538  12.432  1.00  0.00     0.264 C 
BRANCH  33  34
ATOM     34  C   UNL     1      28.670  30.559  11.471  1.00  0.00     0.093 C 
ATOM     35  C   UNL     1      27.501  31.291  10.782  1.00  0.00     0.045 C 
ATOM     36  C   UNL     1      29.666  30.054  10.409  1.00  0.00     0.045 C 
BRANCH  34  37
ATOM     37  O   UNL     1      28.172  29.470  12.211  1.00  0.00    -0.387 OA
ATOM     38  H   UNL     1      27.239  29.681  12.479  1.00  0.00     0.211 HD
ENDBRANCH  34  37
ENDBRANCH  33  34
ENDBRANCH  32  33
ENDBRANCH   3  32
BRANCH   8  39
ATOM     39  C   UNL     1      24.024  35.897  15.553  1.00  0.00     0.103 C 
ATOM     40  N   UNL     1      22.932  36.250  15.411  1.00  0.00    -0.192 NA
ENDBRANCH   8  39
TORSDOF 10
ENDMDL
MODEL 4
REMARK VINA RESULT:    -8.717      1.434      1.791
REMARK INTER + INTRA:         -15.037
REMARK INTER:                 -13.652
REMARK INTRA:                  -1.385
REMARK UNBOUND:                -1.478
REMARK SMILES COc1ccc(CN2C3CC2CN(c2ccc(-c4cc(OCC(C)(C)O)cn5ncc(C#N)c45)cn2)C3)cn1
REMARK SMILES IDX 18 1 19 2 20 3 27 4 28 5 29 6 30 7 31 8 34 9 17 10 14 11
REMARK SMILES IDX 15 12 36 13 16 14 35 15 13 16 8 17 11 18 9 19 10 20 12 21
REMARK SMILES IDX 37 22 7 23 6 24 3 25 39 26 4 27 38 28 5 29 2 30 1 31 21 32
REMARK SMILES IDX 22 33 23 34 24 35 25 36 26 37 32 39 33 40
REMARK H PARENT 26 38
REMARK Flexibility Score: inf
ROOT
ATOM      1  C   UNL     1      17.606  34.004  14.120  1.00  0.00     0.014 A 
ATOM      2  C   UNL     1      17.442  33.829  12.733  1.00  0.00     0.059 A 
ATOM      3  C   UNL     1      16.160  33.780  12.151  1.00  0.00     0.138 A 
ATOM      4  C   UNL     1      15.030  33.893  12.991  1.00  0.00     0.159 A 
ATOM      5  N   UNL     1      15.226  34.042  14.326  1.00  0.00    -0.235 N 
ATOM      6  N   UNL     1      14.274  34.133  15.241  1.00  0.00    -0.175 NA
ATOM      7  C   UNL     1      14.887  34.247  16.439  1.00  0.00     0.155 A 
ATOM      8  C   UNL     1      16.262  34.229  16.262  1.00  0.00     0.098 A 
ATOM      9  C   UNL     1      16.440  34.100  14.896  1.00  0.00     0.092 A 
ENDROOT
BRANCH   1  10
ATOM     10  C   UNL     1      18.958  34.123  14.693  1.00  0.00     0.003 A 
ATOM     11  C   UNL     1      21.508  34.309  15.820  1.00  0.00     0.128 A 
ATOM     12  C   UNL     1      20.832  35.478  15.416  1.00  0.00     0.047 A 
ATOM     13  N   UNL     1      20.893  33.103  15.654  1.00  0.00    -0.239 NA
ATOM     14  C   UNL     1      19.555  35.379  14.858  1.00  0.00     0.014 A 
ATOM     15  C   UNL     1      19.654  32.983  15.111  1.00  0.00     0.122 A 
BRANCH  11  16
ATOM     16  N   UNL     1      22.826  34.359  16.410  1.00  0.00    -0.353 N 
ATOM     17  N   UNL     1      25.503  34.089  16.489  1.00  0.00    -0.289 NA
ATOM     18  C   UNL     1      24.797  33.421  17.592  1.00  0.00     0.078 C 
ATOM     19  C   UNL     1      25.005  35.348  17.068  1.00  0.00     0.078 C 
ATOM     20  C   UNL     1      24.719  34.701  18.420  1.00  0.00     0.042 C 
ATOM     21  C   UNL     1      23.375  33.131  17.059  1.00  0.00     0.137 C 
ATOM     22  C   UNL     1      23.641  35.611  16.387  1.00  0.00     0.137 C 
BRANCH  17  23
ATOM     23  C   UNL     1      26.969  33.954  16.625  1.00  0.00     0.122 C 
BRANCH  23  24
ATOM     24  C   UNL     1      27.509  33.132  15.489  1.00  0.00    -0.015 A 
ATOM     25  C   UNL     1      28.507  31.541  13.430  1.00  0.00     0.212 A 
ATOM     26  N   UNL     1      29.123  31.575  14.647  1.00  0.00    -0.222 NA
ATOM     27  C   UNL     1      27.365  32.313  13.211  1.00  0.00     0.069 A 
ATOM     28  C   UNL     1      28.657  32.342  15.667  1.00  0.00     0.120 A 
ATOM     29  C   UNL     1      26.861  33.107  14.246  1.00  0.00     0.012 A 
BRANCH  25  30
ATOM     30  O   UNL     1      29.003  30.737  12.399  1.00  0.00    -0.481 OA
ATOM     31  C   UNL     1      28.500  30.798  11.069  1.00  0.00     0.280 C 
ENDBRANCH  25  30
ENDBRANCH  23  24
ENDBRANCH  17  23
ENDBRANCH  11  16
ENDBRANCH   1  10
BRANCH   3  32
ATOM     32  O   UNL     1      16.069  33.637  10.756  1.00  0.00    -0.489 OA
BRANCH  32  33
ATOM     33  C   UNL     1      17.115  33.200   9.885  1.00  0.00     0.264 C 
BRANCH  33  34
ATOM     34  C   UNL     1      16.558  32.658   8.548  1.00  0.00     0.093 C 
ATOM     35  C   UNL     1      15.747  33.770   7.854  1.00  0.00     0.045 C 
ATOM     36  C   UNL     1      17.722  32.218   7.639  1.00  0.00     0.045 C 
BRANCH  34  37
ATOM     37  O   UNL     1      15.719  31.560   8.811  1.00  0.00    -0.387 OA
ATOM     38  H   UNL     1      14.844  31.909   9.127  1.00  0.00     0.211 HD
ENDBRANCH  34  37
ENDBRANCH  33  34
ENDBRANCH  32  33
ENDBRANCH   3  32
BRANCH   8  39
ATOM     39  C   UNL     1      17.252  34.269  17.306  1.00  0.00     0.103 C 
ATOM     40  N   UNL     1      18.046  34.302  18.146  1.00  0.00    -0.192 NA
ENDBRANCH   8  39
TORSDOF 10
ENDMDL
MODEL 5
REMARK VINA RESULT:    -8.660      1.925     10.408
REMARK INTER + INTRA:         -14.948
REMARK INTER:                 -13.634
REMARK INTRA:                  -1.314
REMARK UNBOUND:                -1.478
REMARK SMILES COc1ccc(CN2C3CC2CN(c2ccc(-c4cc(OCC(C)(C)O)cn5ncc(C#N)c45)cn2)C3)cn1
REMARK SMILES IDX 18 1 19 2 20 3 27 4 28 5 29 6 30 7 31 8 34 9 17 10 14 11
REMARK SMILES IDX 15 12 36 13 16 14 35 15 13 16 8 17 11 18 9 19 10 20 12 21
REMARK SMILES IDX 37 22 7 23 6 24 3 25 39 26 4 27 38 28 5 29 2 30 1 31 21 32
REMARK SMILES IDX 22 33 23 34 24 35 25 36 26 37 32 39 33 40
REMARK H PARENT 26 38
REMARK Flexibility Score: inf
ROOT
ATOM      1  C   UNL     1      26.257  33.316  13.984  1.00  0.00     0.014 A 
ATOM      2  C   UNL     1      26.922  32.219  13.403  1.00  0.00     0.059 A 
ATOM      3  C   UNL     1      28.327  32.124  13.426  1.00  0.00     0.138 A 
ATOM      4  C   UNL     1      29.067  33.164  14.032  1.00  0.00     0.159 A 
ATOM      5  N   UNL     1      28.393  34.215  14.564  1.00  0.00    -0.235 N 
ATOM      6  N   UNL     1      28.942  35.274  15.137  1.00  0.00    -0.175 NA
ATOM      7  C   UNL     1      27.932  36.090  15.510  1.00  0.00     0.155 A 
ATOM      8  C   UNL     1      26.718  35.519  15.159  1.00  0.00     0.098 A 
ATOM      9  C   UNL     1      27.054  34.318  14.559  1.00  0.00     0.092 A 
ENDROOT
BRANCH   1  10
ATOM     10  C   UNL     1      24.784  33.356  14.009  1.00  0.00     0.003 A 
ATOM     11  C   UNL     1      21.993  33.487  14.036  1.00  0.00     0.128 A 
ATOM     12  C   UNL     1      22.678  32.887  15.112  1.00  0.00     0.047 A 
ATOM     13  N   UNL     1      22.716  33.998  12.999  1.00  0.00    -0.239 NA
ATOM     14  C   UNL     1      24.074  32.830  15.095  1.00  0.00     0.014 A 
ATOM     15  C   UNL     1      24.072  33.949  12.960  1.00  0.00     0.122 A 
BRANCH  11  16
ATOM     16  N   UNL     1      20.552  33.578  14.010  1.00  0.00    -0.353 N 
ATOM     17  N   UNL     1      18.127  34.004  12.920  1.00  0.00    -0.289 NA
ATOM     18  C   UNL     1      18.370  34.754  14.160  1.00  0.00     0.078 C 
ATOM     19  C   UNL     1      18.211  32.794  13.754  1.00  0.00     0.078 C 
ATOM     20  C   UNL     1      17.968  33.575  15.042  1.00  0.00     0.042 C 
ATOM     21  C   UNL     1      19.907  34.901  14.262  1.00  0.00     0.137 C 
ATOM     22  C   UNL     1      19.701  32.379  13.743  1.00  0.00     0.137 C 
BRANCH  17  23
ATOM     23  C   UNL     1      16.761  34.235  12.407  1.00  0.00     0.122 C 
BRANCH  23  24
ATOM     24  C   UNL     1      16.681  33.811  10.967  1.00  0.00    -0.015 A 
ATOM     25  C   UNL     1      16.485  32.962   8.320  1.00  0.00     0.212 A 
ATOM     26  N   UNL     1      16.935  32.118   9.292  1.00  0.00    -0.222 NA
ATOM     27  C   UNL     1      16.122  34.269   8.653  1.00  0.00     0.069 A 
ATOM     28  C   UNL     1      17.039  32.507  10.590  1.00  0.00     0.120 A 
ATOM     29  C   UNL     1      16.215  34.692   9.981  1.00  0.00     0.012 A 
BRANCH  25  30
ATOM     30  O   UNL     1      16.380  32.535   6.993  1.00  0.00    -0.481 OA
ATOM     31  C   UNL     1      16.320  31.160   6.631  1.00  0.00     0.280 C 
ENDBRANCH  25  30
ENDBRANCH  23  24
ENDBRANCH  17  23
ENDBRANCH  11  16
ENDBRANCH   1  10
BRANCH   3  32
ATOM     32  O   UNL     1      28.924  30.986  12.858  1.00  0.00    -0.489 OA
BRANCH  32  33
ATOM     33  C   UNL     1      29.072  30.722  11.461  1.00  0.00     0.264 C 
BRANCH  33  34
ATOM     34  C   UNL     1      30.528  30.944  10.987  1.00  0.00     0.093 C 
ATOM     35  C   UNL     1      30.738  32.444  10.695  1.00  0.00     0.045 C 
ATOM     36  C   UNL     1      31.508  30.486  12.084  1.00  0.00     0.045 C 
BRANCH  34  37
ATOM     37  O   UNL     1      30.747  30.201   9.812  1.00  0.00    -0.387 OA
ATOM     38  H   UNL     1      30.169  30.577   9.098  1.00  0.00     0.211 HD
ENDBRANCH  34  37
ENDBRANCH  33  34
ENDBRANCH  32  33
ENDBRANCH   3  32
BRANCH   8  39
ATOM     39  C   UNL     1      25.419  36.111  15.338  1.00  0.00     0.103 C 
ATOM     40  N   UNL     1      24.376  36.588  15.480  1.00  0.00    -0.192 NA
ENDBRANCH   8  39
TORSDOF 10
ENDMDL
MODEL 6
REMARK VINA RESULT:    -8.596      2.617      3.498
REMARK INTER + INTRA:         -14.848
REMARK INTER:                 -13.326
REMARK INTRA:                  -1.522
REMARK UNBOUND:                -1.478
REMARK SMILES COc1ccc(CN2C3CC2CN(c2ccc(-c4cc(OCC(C)(C)O)cn5ncc(C#N)c45)cn2)C3)cn1
REMARK SMILES IDX 18 1 19 2 20 3 27 4 28 5 29 6 30 7 31 8 34 9 17 10 14 11
REMARK SMILES IDX 15 12 36 13 16 14 35 15 13 16 8 17 11 18 9 19 10 20 12 21
REMARK SMILES IDX 37 22 7 23 6 24 3 25 39 26 4 27 38 28 5 29 2 30 1 31 21 32
REMARK SMILES IDX 22 33 23 34 24 35 25 36 26 37 32 39 33 40
REMARK H PARENT 26 38
REMARK Flexibility Score: inf
ROOT
ATOM      1  C   UNL     1      18.536  34.178  14.482  1.00  0.00     0.014 A 
ATOM      2  C   UNL     1      17.901  34.009  13.237  1.00  0.00     0.059 A 
ATOM      3  C   UNL     1      16.498  34.052  13.124  1.00  0.00     0.138 A 
ATOM      4  C   UNL     1      15.729  34.252  14.292  1.00  0.00     0.159 A 
ATOM      5  N   UNL     1      16.375  34.392  15.478  1.00  0.00    -0.235 N 
ATOM      6  N   UNL     1      15.798  34.556  16.657  1.00  0.00    -0.175 NA
ATOM      7  C   UNL     1      16.787  34.630  17.575  1.00  0.00     0.155 A 
ATOM      8  C   UNL     1      18.016  34.510  16.945  1.00  0.00     0.098 A 
ATOM      9  C   UNL     1      17.712  34.362  15.603  1.00  0.00     0.092 A 
ENDROOT
BRANCH   1  10
ATOM     10  C   UNL     1      20.008  34.200  14.562  1.00  0.00     0.003 A 
ATOM     11  C   UNL     1      22.799  34.280  14.669  1.00  0.00     0.128 A 
ATOM     12  C   UNL     1      22.127  33.045  14.770  1.00  0.00     0.047 A 
ATOM     13  N   UNL     1      22.062  35.418  14.515  1.00  0.00    -0.239 NA
ATOM     14  C   UNL     1      20.732  33.011  14.710  1.00  0.00     0.014 A 
ATOM     15  C   UNL     1      20.706  35.408  14.458  1.00  0.00     0.122 A 
BRANCH  11  16
ATOM     16  N   UNL     1      24.240  34.368  14.717  1.00  0.00    -0.353 N 
ATOM     17  N   UNL     1      26.705  33.933  15.708  1.00  0.00    -0.289 NA
ATOM     18  C   UNL     1      26.411  35.345  15.421  1.00  0.00     0.078 C 
ATOM     19  C   UNL     1      26.590  33.719  14.256  1.00  0.00     0.078 C 
ATOM     20  C   UNL     1      26.780  35.201  13.947  1.00  0.00     0.042 C 
ATOM     21  C   UNL     1      24.871  35.472  15.499  1.00  0.00     0.137 C 
ATOM     22  C   UNL     1      25.102  33.383  13.998  1.00  0.00     0.137 C 
BRANCH  17  23
ATOM     23  C   UNL     1      28.090  33.757  16.191  1.00  0.00     0.122 C 
BRANCH  23  24
ATOM     24  C   UNL     1      28.148  32.608  17.158  1.00  0.00    -0.015 A 
ATOM     25  C   UNL     1      28.333  30.496  18.967  1.00  0.00     0.212 A 
ATOM     26  N   UNL     1      29.198  30.594  17.917  1.00  0.00    -0.222 NA
ATOM     27  C   UNL     1      27.340  31.463  19.136  1.00  0.00     0.069 A 
ATOM     28  C   UNL     1      29.130  31.614  17.022  1.00  0.00     0.120 A 
ATOM     29  C   UNL     1      27.251  32.525  18.232  1.00  0.00     0.012 A 
BRANCH  25  30
ATOM     30  O   UNL     1      28.429  29.441  19.879  1.00  0.00    -0.481 OA
ATOM     31  C   UNL     1      29.425  29.392  20.894  1.00  0.00     0.280 C 
ENDBRANCH  25  30
ENDBRANCH  23  24
ENDBRANCH  17  23
ENDBRANCH  11  16
ENDBRANCH   1  10
BRANCH   3  32
ATOM     32  O   UNL     1      15.930  33.909  11.846  1.00  0.00    -0.489 OA
BRANCH  32  33
ATOM     33  C   UNL     1      16.537  34.290  10.609  1.00  0.00     0.264 C 
BRANCH  33  34
ATOM     34  C   UNL     1      16.839  33.062   9.718  1.00  0.00     0.093 C 
ATOM     35  C   UNL     1      16.595  33.439   8.243  1.00  0.00     0.045 C 
ATOM     36  C   UNL     1      18.305  32.628   9.909  1.00  0.00     0.045 C 
BRANCH  34  37
ATOM     37  O   UNL     1      15.980  32.009  10.082  1.00  0.00    -0.387 OA
ATOM     38  H   UNL     1      15.058  32.373  10.152  1.00  0.00     0.211 HD
ENDBRANCH  34  37
ENDBRANCH  33  34
ENDBRANCH  32  33
ENDBRANCH   3  32
BRANCH   8  39
ATOM     39  C   UNL     1      19.301  34.482  17.592  1.00  0.00     0.103 C 
ATOM     40  N   UNL     1      20.334  34.461  18.112  1.00  0.00    -0.192 NA
ENDBRANCH   8  39
TORSDOF 10
ENDMDL
MODEL 7
REMARK VINA RESULT:    -8.568      2.581      3.421
REMARK INTER + INTRA:         -14.805
REMARK INTER:                 -13.419
REMARK INTRA:                  -1.386
REMARK UNBOUND:                -1.478
REMARK SMILES COc1ccc(CN2C3CC2CN(c2ccc(-c4cc(OCC(C)(C)O)cn5ncc(C#N)c45)cn2)C3)cn1
REMARK SMILES IDX 18 1 19 2 20 3 27 4 28 5 29 6 30 7 31 8 34 9 17 10 14 11
REMARK SMILES IDX 15 12 36 13 16 14 35 15 13 16 8 17 11 18 9 19 10 20 12 21
REMARK SMILES IDX 37 22 7 23 6 24 3 25 39 26 4 27 38 28 5 29 2 30 1 31 21 32
REMARK SMILES IDX 22 33 23 34 24 35 25 36 26 37 32 39 33 40
REMARK H PARENT 26 38
REMARK Flexibility Score: inf
ROOT
ATOM      1  C   UNL     1      19.047  33.573  13.357  1.00  0.00     0.014 A 
ATOM      2  C   UNL     1      18.573  32.838  12.254  1.00  0.00     0.059 A 
ATOM      3  C   UNL     1      17.202  32.814  11.930  1.00  0.00     0.138 A 
ATOM      4  C   UNL     1      16.300  33.531  12.746  1.00  0.00     0.159 A 
ATOM      5  N   UNL     1      16.790  34.212  13.812  1.00  0.00    -0.235 N 
ATOM      6  N   UNL     1      16.073  34.904  14.683  1.00  0.00    -0.175 NA
ATOM      7  C   UNL     1      16.935  35.405  15.596  1.00  0.00     0.155 A 
ATOM      8  C   UNL     1      18.227  35.013  15.280  1.00  0.00     0.098 A 
ATOM      9  C   UNL     1      18.095  34.254  14.131  1.00  0.00     0.092 A 
ENDROOT
BRANCH   1  10
ATOM     10  C   UNL     1      20.494  33.639  13.632  1.00  0.00     0.003 A 
ATOM     11  C   UNL     1      23.245  33.779  14.097  1.00  0.00     0.128 A 
ATOM     12  C   UNL     1      22.488  32.737  14.669  1.00  0.00     0.047 A 
ATOM     13  N   UNL     1      22.610  34.701  13.317  1.00  0.00    -0.239 NA
ATOM     14  C   UNL     1      21.114  32.669  14.428  1.00  0.00     0.014 A 
ATOM     15  C   UNL     1      21.276  34.657  13.074  1.00  0.00     0.122 A 
BRANCH  11  16
ATOM     16  N   UNL     1      24.670  33.888  14.308  1.00  0.00    -0.353 N 
ATOM     17  N   UNL     1      26.974  33.753  15.694  1.00  0.00    -0.289 NA
ATOM     18  C   UNL     1      26.758  35.034  15.007  1.00  0.00     0.078 C 
ATOM     19  C   UNL     1      27.042  33.159  14.348  1.00  0.00     0.078 C 
ATOM     20  C   UNL     1      27.310  34.507  13.685  1.00  0.00     0.042 C 
ATOM     21  C   UNL     1      25.225  35.165  14.845  1.00  0.00     0.137 C 
ATOM     22  C   UNL     1      25.591  32.754  13.995  1.00  0.00     0.137 C 
BRANCH  17  23
ATOM     23  C   UNL     1      28.281  33.722  16.384  1.00  0.00     0.122 C 
BRANCH  23  24
ATOM     24  C   UNL     1      28.339  32.539  17.308  1.00  0.00    -0.015 A 
ATOM     25  C   UNL     1      28.527  30.355  19.030  1.00  0.00     0.212 A 
ATOM     26  N   UNL     1      29.266  30.407  17.885  1.00  0.00    -0.222 NA
ATOM     27  C   UNL     1      27.663  31.407  19.343  1.00  0.00     0.069 A 
ATOM     28  C   UNL     1      29.193  31.461  17.029  1.00  0.00     0.120 A 
ATOM     29  C   UNL     1      27.573  32.504  18.483  1.00  0.00     0.012 A 
BRANCH  25  30
ATOM     30  O   UNL     1      28.626  29.264  19.898  1.00  0.00    -0.481 OA
ATOM     31  C   UNL     1      29.307  29.334  21.145  1.00  0.00     0.280 C 
ENDBRANCH  25  30
ENDBRANCH  23  24
ENDBRANCH  17  23
ENDBRANCH  11  16
ENDBRANCH   1  10
BRANCH   3  32
ATOM     32  O   UNL     1      16.802  32.087  10.795  1.00  0.00    -0.489 OA
BRANCH  32  33
ATOM     33  C   UNL     1      16.422  32.640   9.533  1.00  0.00     0.264 C 
BRANCH  33  34
ATOM     34  C   UNL     1      17.034  31.849   8.354  1.00  0.00     0.093 C 
ATOM     35  C   UNL     1      15.916  31.059   7.644  1.00  0.00     0.045 C 
ATOM     36  C   UNL     1      17.694  32.823   7.360  1.00  0.00     0.045 C 
BRANCH  34  37
ATOM     37  O   UNL     1      17.998  30.953   8.853  1.00  0.00    -0.387 OA
ATOM     38  H   UNL     1      18.768  31.484   9.187  1.00  0.00     0.211 HD
ENDBRANCH  34  37
ENDBRANCH  33  34
ENDBRANCH  32  33
ENDBRANCH   3  32
BRANCH   8  39
ATOM     39  C   UNL     1      19.411  35.299  16.047  1.00  0.00     0.103 C 
ATOM     40  N   UNL     1      20.362  35.528  16.663  1.00  0.00    -0.192 NA
ENDBRANCH   8  39
TORSDOF 10
ENDMDL
MODEL 8
REMARK VINA RESULT:    -8.458      1.661      2.177
REMARK INTER + INTRA:         -14.633
REMARK INTER:                 -13.359
REMARK INTRA:                  -1.274
REMARK UNBOUND:                -1.478
REMARK SMILES COc1ccc(CN2C3CC2CN(c2ccc(-c4cc(OCC(C)(C)O)cn5ncc(C#N)c45)cn2)C3)cn1
REMARK SMILES IDX 18 1 19 2 20 3 27 4 28 5 29 6 30 7 31 8 34 9 17 10 14 11
REMARK SMILES IDX 15 12 36 13 16 14 35 15 13 16 8 17 11 18 9 19 10 20 12 21
REMARK SMILES IDX 37 22 7 23 6 24 3 25 39 26 4 27 38 28 5 29 2 30 1 31 21 32
REMARK SMILES IDX 22 33 23 34 24 35 25 36 26 37 32 39 33 40
REMARK H PARENT 26 38
REMARK Flexibility Score: inf
ROOT
ATOM      1  C   UNL     1      19.551  33.421  12.616  1.00  0.00     0.014 A 
ATOM      2  C   UNL     1      19.304  32.608  11.493  1.00  0.00     0.059 A 
ATOM      3  C   UNL     1      17.990  32.334  11.067  1.00  0.00     0.138 A 
ATOM      4  C   UNL     1      16.913  32.878  11.800  1.00  0.00     0.159 A 
ATOM      5  N   UNL     1      17.188  33.641  12.888  1.00  0.00    -0.235 N 
ATOM      6  N   UNL     1      16.292  34.195  13.690  1.00  0.00    -0.175 NA
ATOM      7  C   UNL     1      16.975  34.847  14.656  1.00  0.00     0.155 A 
ATOM      8  C   UNL     1      18.337  34.695  14.446  1.00  0.00     0.098 A 
ATOM      9  C   UNL     1      18.434  33.920  13.304  1.00  0.00     0.092 A 
ENDROOT
BRANCH   1  10
ATOM     10  C   UNL     1      20.936  33.750  12.998  1.00  0.00     0.003 A 
ATOM     11  C   UNL     1      23.549  34.358  13.777  1.00  0.00     0.128 A 
ATOM     12  C   UNL     1      22.858  35.222  12.905  1.00  0.00     0.047 A 
ATOM     13  N   UNL     1      22.918  33.236  14.229  1.00  0.00    -0.239 NA
ATOM     14  C   UNL     1      21.549  34.915  12.524  1.00  0.00     0.014 A 
ATOM     15  C   UNL     1      21.649  32.916  13.867  1.00  0.00     0.122 A 
BRANCH  11  16
ATOM     16  N   UNL     1      24.900  34.634  14.208  1.00  0.00    -0.353 N 
ATOM     17  N   UNL     1      27.302  34.088  15.295  1.00  0.00    -0.289 NA
ATOM     18  C   UNL     1      26.649  35.286  15.845  1.00  0.00     0.078 C 
ATOM     19  C   UNL     1      27.367  34.831  14.026  1.00  0.00     0.078 C 
ATOM     20  C   UNL     1      27.159  36.176  14.716  1.00  0.00     0.042 C 
ATOM     21  C   UNL     1      25.134  35.074  15.615  1.00  0.00     0.137 C 
ATOM     22  C   UNL     1      26.058  34.494  13.274  1.00  0.00     0.137 C 
BRANCH  17  23
ATOM     23  C   UNL     1      28.639  33.880  15.890  1.00  0.00     0.122 C 
BRANCH  23  24
ATOM     24  C   UNL     1      29.469  33.019  14.980  1.00  0.00    -0.015 A 
ATOM     25  C   UNL     1      30.940  31.389  13.263  1.00  0.00     0.212 A 
ATOM     26  N   UNL     1      30.024  30.854  14.120  1.00  0.00    -0.222 NA
ATOM     27  C   UNL     1      31.146  32.771  13.247  1.00  0.00     0.069 A 
ATOM     28  C   UNL     1      29.294  31.626  14.967  1.00  0.00     0.120 A 
ATOM     29  C   UNL     1      30.405  33.588  14.105  1.00  0.00     0.012 A 
BRANCH  25  30
ATOM     30  O   UNL     1      31.673  30.574  12.395  1.00  0.00    -0.481 OA
ATOM     31  C   UNL     1      31.525  30.628  10.982  1.00  0.00     0.280 C 
ENDBRANCH  25  30
ENDBRANCH  23  24
ENDBRANCH  17  23
ENDBRANCH  11  16
ENDBRANCH   1  10
BRANCH   3  32
ATOM     32  O   UNL     1      17.817  31.543   9.918  1.00  0.00    -0.489 OA
BRANCH  32  33
ATOM     33  C   UNL     1      17.835  32.007   8.567  1.00  0.00     0.264 C 
BRANCH  33  34
ATOM     34  C   UNL     1      16.443  31.892   7.903  1.00  0.00     0.093 C 
ATOM     35  C   UNL     1      15.909  33.308   7.605  1.00  0.00     0.045 C 
ATOM     36  C   UNL     1      16.556  31.092   6.591  1.00  0.00     0.045 C 
BRANCH  34  37
ATOM     37  O   UNL     1      15.566  31.235   8.786  1.00  0.00    -0.387 OA
ATOM     38  H   UNL     1      14.640  31.354   8.446  1.00  0.00     0.211 HD
ENDBRANCH  34  37
ENDBRANCH  33  34
ENDBRANCH  32  33
ENDBRANCH   3  32
BRANCH   8  39
ATOM     39  C   UNL     1      19.387  35.194  15.295  1.00  0.00     0.103 C 
ATOM     40  N   UNL     1      20.231  35.595  15.976  1.00  0.00    -0.192 NA
ENDBRANCH   8  39
TORSDOF 10
ENDMDL
MODEL 9
REMARK VINA RESULT:    -8.419      1.612      2.144
REMARK INTER + INTRA:         -14.573
REMARK INTER:                 -13.266
REMARK INTRA:                  -1.307
REMARK UNBOUND:                -1.478
REMARK SMILES COc1ccc(CN2C3CC2CN(c2ccc(-c4cc(OCC(C)(C)O)cn5ncc(C#N)c45)cn2)C3)cn1
REMARK SMILES IDX 18 1 19 2 20 3 27 4 28 5 29 6 30 7 31 8 34 9 17 10 14 11
REMARK SMILES IDX 15 12 36 13 16 14 35 15 13 16 8 17 11 18 9 19 10 20 12 21
REMARK SMILES IDX 37 22 7 23 6 24 3 25 39 26 4 27 38 28 5 29 2 30 1 31 21 32
REMARK SMILES IDX 22 33 23 34 24 35 25 36 26 37 32 39 33 40
REMARK H PARENT 26 38
REMARK Flexibility Score: inf
ROOT
ATOM      1  C   UNL     1      18.622  32.882  11.702  1.00  0.00     0.014 A 
ATOM      2  C   UNL     1      18.571  32.226  10.457  1.00  0.00     0.059 A 
ATOM      3  C   UNL     1      17.343  31.986   9.811  1.00  0.00     0.138 A 
ATOM      4  C   UNL     1      16.151  32.402  10.444  1.00  0.00     0.159 A 
ATOM      5  N   UNL     1      16.237  33.014  11.652  1.00  0.00    -0.235 N 
ATOM      6  N   UNL     1      15.215  33.434  12.380  1.00  0.00    -0.175 NA
ATOM      7  C   UNL     1      15.727  33.961  13.514  1.00  0.00     0.155 A 
ATOM      8  C   UNL     1      17.110  33.868  13.488  1.00  0.00     0.098 A 
ATOM      9  C   UNL     1      17.400  33.259  12.279  1.00  0.00     0.092 A 
ENDROOT
BRANCH   1  10
ATOM     10  C   UNL     1      19.925  33.184  12.323  1.00  0.00     0.003 A 
ATOM     11  C   UNL     1      22.372  33.738  13.551  1.00  0.00     0.128 A 
ATOM     12  C   UNL     1      21.835  34.645  12.615  1.00  0.00     0.047 A 
ATOM     13  N   UNL     1      21.675  32.602  13.842  1.00  0.00    -0.239 NA
ATOM     14  C   UNL     1      20.608  34.365  12.009  1.00  0.00     0.014 A 
ATOM     15  C   UNL     1      20.483  32.309  13.261  1.00  0.00     0.122 A 
BRANCH  11  16
ATOM     16  N   UNL     1      23.632  33.986  14.212  1.00  0.00    -0.353 N 
ATOM     17  N   UNL     1      26.292  34.365  14.387  1.00  0.00    -0.289 NA
ATOM     18  C   UNL     1      25.768  33.336  15.298  1.00  0.00     0.078 C 
ATOM     19  C   UNL     1      25.492  35.321  15.171  1.00  0.00     0.078 C 
ATOM     20  C   UNL     1      25.369  34.364  16.353  1.00  0.00     0.042 C 
ATOM     21  C   UNL     1      24.466  32.824  14.639  1.00  0.00     0.137 C 
ATOM     22  C   UNL     1      24.110  35.377  14.479  1.00  0.00     0.137 C 
BRANCH  17  23
ATOM     23  C   UNL     1      27.744  34.565  14.576  1.00  0.00     0.122 C 
BRANCH  23  24
ATOM     24  C   UNL     1      28.498  33.873  13.475  1.00  0.00    -0.015 A 
ATOM     25  C   UNL     1      29.946  32.556  11.491  1.00  0.00     0.212 A 
ATOM     26  N   UNL     1      30.572  33.369  12.389  1.00  0.00    -0.222 NA
ATOM     27  C   UNL     1      28.561  32.383  11.564  1.00  0.00     0.069 A 
ATOM     28  C   UNL     1      29.890  34.022  13.366  1.00  0.00     0.120 A 
ATOM     29  C   UNL     1      27.837  33.039  12.563  1.00  0.00     0.012 A 
BRANCH  25  30
ATOM     30  O   UNL     1      30.671  31.888  10.500  1.00  0.00    -0.481 OA
ATOM     31  C   UNL     1      31.184  30.573  10.677  1.00  0.00     0.280 C 
ENDBRANCH  25  30
ENDBRANCH  23  24
ENDBRANCH  17  23
ENDBRANCH  11  16
ENDBRANCH   1  10
BRANCH   3  32
ATOM     32  O   UNL     1      17.366  31.356   8.554  1.00  0.00    -0.489 OA
BRANCH  32  33
ATOM     33  C   UNL     1      16.306  31.351   7.596  1.00  0.00     0.264 C 
BRANCH  33  34
ATOM     34  C   UNL     1      15.676  29.946   7.447  1.00  0.00     0.093 C 
ATOM     35  C   UNL     1      14.293  29.941   8.130  1.00  0.00     0.045 C 
ATOM     36  C   UNL     1      15.520  29.601   5.954  1.00  0.00     0.045 C 
BRANCH  34  37
ATOM     37  O   UNL     1      16.511  29.000   8.070  1.00  0.00    -0.387 OA
ATOM     38  H   UNL     1      16.231  28.920   9.020  1.00  0.00     0.211 HD
ENDBRANCH  34  37
ENDBRANCH  33  34
ENDBRANCH  32  33
ENDBRANCH   3  32
BRANCH   8  39
ATOM     39  C   UNL     1      18.008  34.267  14.539  1.00  0.00     0.103 C 
ATOM     40  N   UNL     1      18.729  34.587  15.384  1.00  0.00    -0.192 NA
ENDBRANCH   8  39
TORSDOF 10
ENDMDL
MODEL 10
REMARK VINA RESULT:    -8.384      2.903     10.725
REMARK INTER + INTRA:         -14.518
REMARK INTER:                 -13.065
REMARK INTRA:                  -1.453
REMARK UNBOUND:                -1.478
REMARK SMILES COc1ccc(CN2C3CC2CN(c2ccc(-c4cc(OCC(C)(C)O)cn5ncc(C#N)c45)cn2)C3)cn1
REMARK SMILES IDX 18 1 19 2 20 3 27 4 28 5 29 6 30 7 31 8 34 9 17 10 14 11
REMARK SMILES IDX 15 12 36 13 16 14 35 15 13 16 8 17 11 18 9 19 10 20 12 21
REMARK SMILES IDX 37 22 7 23 6 24 3 25 39 26 4 27 38 28 5 29 2 30 1 31 21 32
REMARK SMILES IDX 22 33 23 34 24 35 25 36 26 37 32 39 33 40
REMARK H PARENT 26 38
REMARK Flexibility Score: inf
ROOT
ATOM      1  C   UNL     1      25.798  33.774  14.068  1.00  0.00     0.014 A 
ATOM      2  C   UNL     1      26.770  32.969  13.446  1.00  0.00     0.059 A 
ATOM      3  C   UNL     1      28.129  33.060  13.804  1.00  0.00     0.138 A 
ATOM      4  C   UNL     1      28.508  33.993  14.794  1.00  0.00     0.159 A 
ATOM      5  N   UNL     1      27.547  34.766  15.359  1.00  0.00    -0.235 N 
ATOM      6  N   UNL     1      27.746  35.701  16.275  1.00  0.00    -0.175 NA
ATOM      7  C   UNL     1      26.541  36.247  16.551  1.00  0.00     0.155 A 
ATOM      8  C   UNL     1      25.564  35.631  15.784  1.00  0.00     0.098 A 
ATOM      9  C   UNL     1      26.245  34.687  15.036  1.00  0.00     0.092 A 
ENDROOT
BRANCH   1  10
ATOM     10  C   UNL     1      24.374  33.608  13.726  1.00  0.00     0.003 A 
ATOM     11  C   UNL     1      21.671  33.352  13.068  1.00  0.00     0.128 A 
ATOM     12  C   UNL     1      22.201  32.628  14.155  1.00  0.00     0.047 A 
ATOM     13  N   UNL     1      22.498  34.173  12.358  1.00  0.00    -0.239 NA
ATOM     14  C   UNL     1      23.552  32.765  14.482  1.00  0.00     0.014 A 
ATOM     15  C   UNL     1      23.814  34.317  12.657  1.00  0.00     0.122 A 
BRANCH  11  16
ATOM     16  N   UNL     1      20.279  33.251  12.694  1.00  0.00    -0.353 N 
ATOM     17  N   UNL     1      17.637  33.737  12.874  1.00  0.00    -0.289 NA
ATOM     18  C   UNL     1      17.984  32.310  12.802  1.00  0.00     0.078 C 
ATOM     19  C   UNL     1      18.178  33.833  11.508  1.00  0.00     0.078 C 
ATOM     20  C   UNL     1      18.069  32.329  11.279  1.00  0.00     0.042 C 
ATOM     21  C   UNL     1      19.430  32.208  13.342  1.00  0.00     0.137 C 
ATOM     22  C   UNL     1      19.680  34.164  11.674  1.00  0.00     0.137 C 
BRANCH  17  23
ATOM     23  C   UNL     1      16.173  33.936  12.909  1.00  0.00     0.122 C 
BRANCH  23  24
ATOM     24  C   UNL     1      15.750  34.344  14.292  1.00  0.00    -0.015 A 
ATOM     25  C   UNL     1      14.994  35.177  16.842  1.00  0.00     0.212 A 
ATOM     26  N   UNL     1      16.278  35.331  16.410  1.00  0.00    -0.222 NA
ATOM     27  C   UNL     1      14.046  34.593  15.999  1.00  0.00     0.069 A 
ATOM     28  C   UNL     1      16.672  34.934  15.172  1.00  0.00     0.120 A 
ATOM     29  C   UNL     1      14.425  34.180  14.719  1.00  0.00     0.012 A 
BRANCH  25  30
ATOM     30  O   UNL     1      14.612  35.601  18.119  1.00  0.00    -0.481 OA
ATOM     31  C   UNL     1      15.442  36.415  18.938  1.00  0.00     0.280 C 
ENDBRANCH  25  30
ENDBRANCH  23  24
ENDBRANCH  17  23
ENDBRANCH  11  16
ENDBRANCH   1  10
BRANCH   3  32
ATOM     32  O   UNL     1      29.043  32.202  13.166  1.00  0.00    -0.489 OA
BRANCH  32  33
ATOM     33  C   UNL     1      28.942  31.712  11.827  1.00  0.00     0.264 C 
BRANCH  33  34
ATOM     34  C   UNL     1      29.513  30.280  11.698  1.00  0.00     0.093 C 
ATOM     35  C   UNL     1      29.994  30.060  10.250  1.00  0.00     0.045 C 
ATOM     36  C   UNL     1      30.693  30.100  12.671  1.00  0.00     0.045 C 
BRANCH  34  37
ATOM     37  O   UNL     1      28.500  29.353  12.002  1.00  0.00    -0.387 OA
ATOM     38  H   UNL     1      28.932  28.523  12.336  1.00  0.00     0.211 HD
ENDBRANCH  34  37
ENDBRANCH  33  34
ENDBRANCH  32  33
ENDBRANCH   3  32
BRANCH   8  39
ATOM     39  C   UNL     1      24.167  35.976  15.754  1.00  0.00     0.103 C 
ATOM     40  N   UNL     1      23.045  36.253  15.731  1.00  0.00    -0.192 NA
ENDBRANCH   8  39
TORSDOF 10
ENDMDL
MODEL 11
REMARK VINA RESULT:    -8.375      3.472      6.040
REMARK INTER + INTRA:         -14.505
REMARK INTER:                 -12.931
REMARK INTRA:                  -1.574
REMARK UNBOUND:                -1.478
REMARK SMILES COc1ccc(CN2C3CC2CN(c2ccc(-c4cc(OCC(C)(C)O)cn5ncc(C#N)c45)cn2)C3)cn1
REMARK SMILES IDX 18 1 19 2 20 3 27 4 28 5 29 6 30 7 31 8 34 9 17 10 14 11
REMARK SMILES IDX 15 12 36 13 16 14 35 15 13 16 8 17 11 18 9 19 10 20 12 21
REMARK SMILES IDX 37 22 7 23 6 24 3 25 39 26 4 27 38 28 5 29 2 30 1 31 21 32
REMARK SMILES IDX 22 33 23 34 24 35 25 36 26 37 32 39 33 40
REMARK H PARENT 26 38
REMARK Flexibility Score: inf
ROOT
ATOM      1  C   UNL     1      18.521  34.653  15.895  1.00  0.00     0.014 A 
ATOM      2  C   UNL     1      18.512  35.046  17.246  1.00  0.00     0.059 A 
ATOM      3  C   UNL     1      17.303  35.283  17.928  1.00  0.00     0.138 A 
ATOM      4  C   UNL     1      16.088  35.134  17.225  1.00  0.00     0.159 A 
ATOM      5  N   UNL     1      16.135  34.772  15.918  1.00  0.00    -0.235 N 
ATOM      6  N   UNL     1      15.090  34.620  15.120  1.00  0.00    -0.175 NA
ATOM      7  C   UNL     1      15.568  34.279  13.903  1.00  0.00     0.155 A 
ATOM      8  C   UNL     1      16.952  34.215  13.947  1.00  0.00     0.098 A 
ATOM      9  C   UNL     1      17.278  34.534  15.254  1.00  0.00     0.092 A 
ENDROOT
BRANCH   1  10
ATOM     10  C   UNL     1      19.797  34.342  15.225  1.00  0.00     0.003 A 
ATOM     11  C   UNL     1      22.228  33.716  13.999  1.00  0.00     0.128 A 
ATOM     12  C   UNL     1      21.799  35.057  14.063  1.00  0.00     0.047 A 
ATOM     13  N   UNL     1      21.440  32.747  14.546  1.00  0.00    -0.239 NA
ATOM     14  C   UNL     1      20.585  35.364  14.683  1.00  0.00     0.014 A 
ATOM     15  C   UNL     1      20.255  33.022  15.149  1.00  0.00     0.122 A 
BRANCH  11  16
ATOM     16  N   UNL     1      23.479  33.348  13.377  1.00  0.00    -0.353 N 
ATOM     17  N   UNL     1      26.152  33.289  13.060  1.00  0.00    -0.289 NA
ATOM     18  C   UNL     1      25.409  33.665  11.848  1.00  0.00     0.078 C 
ATOM     19  C   UNL     1      25.498  31.976  12.930  1.00  0.00     0.078 C 
ATOM     20  C   UNL     1      25.149  32.212  11.464  1.00  0.00     0.042 C 
ATOM     21  C   UNL     1      24.070  34.255  12.349  1.00  0.00     0.137 C 
ATOM     22  C   UNL     1      24.183  32.081  13.738  1.00  0.00     0.137 C 
BRANCH  17  23
ATOM     23  C   UNL     1      27.605  33.217  12.803  1.00  0.00     0.122 C 
BRANCH  23  24
ATOM     24  C   UNL     1      28.281  32.471  13.918  1.00  0.00    -0.015 A 
ATOM     25  C   UNL     1      29.606  31.095  15.948  1.00  0.00     0.212 A 
ATOM     26  N   UNL     1      29.681  30.672  14.653  1.00  0.00    -0.222 NA
ATOM     27  C   UNL     1      28.853  32.229  16.262  1.00  0.00     0.069 A 
ATOM     28  C   UNL     1      29.046  31.326  13.646  1.00  0.00     0.120 A 
ATOM     29  C   UNL     1      28.193  32.922  15.243  1.00  0.00     0.012 A 
BRANCH  25  30
ATOM     30  O   UNL     1      30.276  30.410  16.966  1.00  0.00    -0.481 OA
ATOM     31  C   UNL     1      30.993  31.078  17.997  1.00  0.00     0.280 C 
ENDBRANCH  25  30
ENDBRANCH  23  24
ENDBRANCH  17  23
ENDBRANCH  11  16
ENDBRANCH   1  10
BRANCH   3  32
ATOM     32  O   UNL     1      17.366  35.641  19.286  1.00  0.00    -0.489 OA
BRANCH  32  33
ATOM     33  C   UNL     1      18.484  35.447  20.156  1.00  0.00     0.264 C 
BRANCH  33  34
ATOM     34  C   UNL     1      19.169  36.787  20.515  1.00  0.00     0.093 C 
ATOM     35  C   UNL     1      20.488  36.904  19.724  1.00  0.00     0.045 C 
ATOM     36  C   UNL     1      18.240  37.961  20.153  1.00  0.00     0.045 C 
BRANCH  34  37
ATOM     37  O   UNL     1      19.446  36.806  21.894  1.00  0.00    -0.387 OA
ATOM     38  H   UNL     1      18.721  37.313  22.346  1.00  0.00     0.211 HD
ENDBRANCH  34  37
ENDBRANCH  33  34
ENDBRANCH  32  33
ENDBRANCH   3  32
BRANCH   8  39
ATOM     39  C   UNL     1      17.824  33.941  12.836  1.00  0.00     0.103 C 
ATOM     40  N   UNL     1      18.525  33.719  11.944  1.00  0.00    -0.192 NA
ENDBRANCH   8  39
TORSDOF 10
ENDMDL
MODEL 12
REMARK VINA RESULT:    -8.324      2.644     11.015
REMARK INTER + INTRA:         -14.426
REMARK INTER:                 -13.032
REMARK INTRA:                  -1.393
REMARK UNBOUND:                -1.478
REMARK SMILES COc1ccc(CN2C3CC2CN(c2ccc(-c4cc(OCC(C)(C)O)cn5ncc(C#N)c45)cn2)C3)cn1
REMARK SMILES IDX 18 1 19 2 20 3 27 4 28 5 29 6 30 7 31 8 34 9 17 10 14 11
REMARK SMILES IDX 15 12 36 13 16 14 35 15 13 16 8 17 11 18 9 19 10 20 12 21
REMARK SMILES IDX 37 22 7 23 6 24 3 25 39 26 4 27 38 28 5 29 2 30 1 31 21 32
REMARK SMILES IDX 22 33 23 34 24 35 25 36 26 37 32 39 33 40
REMARK H PARENT 26 38
REMARK Flexibility Score: inf
ROOT
ATOM      1  C   UNL     1      26.354  33.123  14.606  1.00  0.00     0.014 A 
ATOM      2  C   UNL     1      27.049  33.150  15.829  1.00  0.00     0.059 A 
ATOM      3  C   UNL     1      28.452  33.030  15.873  1.00  0.00     0.138 A 
ATOM      4  C   UNL     1      29.156  32.865  14.660  1.00  0.00     0.159 A 
ATOM      5  N   UNL     1      28.452  32.825  13.501  1.00  0.00    -0.235 N 
ATOM      6  N   UNL     1      28.962  32.647  12.293  1.00  0.00    -0.175 NA
ATOM      7  C   UNL     1      27.928  32.648  11.423  1.00  0.00     0.155 A 
ATOM      8  C   UNL     1      26.739  32.833  12.113  1.00  0.00     0.098 A 
ATOM      9  C   UNL     1      27.115  32.945  13.440  1.00  0.00     0.092 A 
ENDROOT
BRANCH   1  10
ATOM     10  C   UNL     1      24.894  33.321  14.582  1.00  0.00     0.003 A 
ATOM     11  C   UNL     1      22.120  33.648  14.507  1.00  0.00     0.128 A 
ATOM     12  C   UNL     1      22.964  34.763  14.330  1.00  0.00     0.047 A 
ATOM     13  N   UNL     1      22.684  32.422  14.708  1.00  0.00    -0.239 NA
ATOM     14  C   UNL     1      24.350  34.592  14.364  1.00  0.00     0.014 A 
ATOM     15  C   UNL     1      24.028  32.234  14.748  1.00  0.00     0.122 A 
BRANCH  11  16
ATOM     16  N   UNL     1      20.681  33.771  14.472  1.00  0.00    -0.353 N 
ATOM     17  N   UNL     1      18.261  34.102  13.339  1.00  0.00    -0.289 NA
ATOM     18  C   UNL     1      18.530  35.009  14.464  1.00  0.00     0.078 C 
ATOM     19  C   UNL     1      18.321  33.016  14.333  1.00  0.00     0.078 C 
ATOM     20  C   UNL     1      18.104  33.973  15.501  1.00  0.00     0.042 C 
ATOM     21  C   UNL     1      20.070  35.131  14.541  1.00  0.00     0.137 C 
ATOM     22  C   UNL     1      19.801  32.567  14.375  1.00  0.00     0.137 C 
BRANCH  17  23
ATOM     23  C   UNL     1      16.897  34.294  12.803  1.00  0.00     0.122 C 
BRANCH  23  24
ATOM     24  C   UNL     1      16.852  33.859  11.365  1.00  0.00    -0.015 A 
ATOM     25  C   UNL     1      16.719  32.993   8.720  1.00  0.00     0.212 A 
ATOM     26  N   UNL     1      17.118  32.146   9.712  1.00  0.00    -0.222 NA
ATOM     27  C   UNL     1      16.376  34.311   9.031  1.00  0.00     0.069 A 
ATOM     28  C   UNL     1      17.191  32.544  11.010  1.00  0.00     0.120 A 
ATOM     29  C   UNL     1      16.438  34.743  10.358  1.00  0.00     0.012 A 
BRANCH  25  30
ATOM     30  O   UNL     1      16.645  32.557   7.393  1.00  0.00    -0.481 OA
ATOM     31  C   UNL     1      16.393  31.201   7.044  1.00  0.00     0.280 C 
ENDBRANCH  25  30
ENDBRANCH  23  24
ENDBRANCH  17  23
ENDBRANCH  11  16
ENDBRANCH   1  10
BRANCH   3  32
ATOM     32  O   UNL     1      29.085  33.099  17.126  1.00  0.00    -0.489 OA
BRANCH  32  33
ATOM     33  C   UNL     1      30.303  32.446  17.491  1.00  0.00     0.264 C 
BRANCH  33  34
ATOM     34  C   UNL     1      30.047  31.020  18.034  1.00  0.00     0.093 C 
ATOM     35  C   UNL     1      31.124  30.682  19.084  1.00  0.00     0.045 C 
ATOM     36  C   UNL     1      28.651  30.951  18.680  1.00  0.00     0.045 C 
BRANCH  34  37
ATOM     37  O   UNL     1      30.125  30.103  16.969  1.00  0.00    -0.387 OA
ATOM     38  H   UNL     1      31.041  30.150  16.588  1.00  0.00     0.211 HD
ENDBRANCH  34  37
ENDBRANCH  33  34
ENDBRANCH  32  33
ENDBRANCH   3  32
BRANCH   8  39
ATOM     39  C   UNL     1      25.419  32.834  11.541  1.00  0.00     0.103 C 
ATOM     40  N   UNL     1      24.357  32.835  11.083  1.00  0.00    -0.192 NA
ENDBRANCH   8  39
TORSDOF 10
ENDMDL
MODEL 13
REMARK VINA RESULT:    -8.294      3.792      4.400
REMARK INTER + INTRA:         -14.379
REMARK INTER:                 -12.992
REMARK INTRA:                  -1.386
REMARK UNBOUND:                -1.478
REMARK SMILES COc1ccc(CN2C3CC2CN(c2ccc(-c4cc(OCC(C)(C)O)cn5ncc(C#N)c45)cn2)C3)cn1
REMARK SMILES IDX 18 1 19 2 20 3 27 4 28 5 29 6 30 7 31 8 34 9 17 10 14 11
REMARK SMILES IDX 15 12 36 13 16 14 35 15 13 16 8 17 11 18 9 19 10 20 12 21
REMARK SMILES IDX 37 22 7 23 6 24 3 25 39 26 4 27 38 28 5 29 2 30 1 31 21 32
REMARK SMILES IDX 22 33 23 34 24 35 25 36 26 37 32 39 33 40
REMARK H PARENT 26 38
REMARK Flexibility Score: inf
ROOT
ATOM      1  C   UNL     1      17.627  34.068  14.380  1.00  0.00     0.014 A 
ATOM      2  C   UNL     1      17.907  33.405  13.170  1.00  0.00     0.059 A 
ATOM      3  C   UNL     1      16.871  32.992  12.310  1.00  0.00     0.138 A 
ATOM      4  C   UNL     1      15.534  33.241  12.691  1.00  0.00     0.159 A 
ATOM      5  N   UNL     1      15.302  33.865  13.873  1.00  0.00    -0.235 N 
ATOM      6  N   UNL     1      14.110  34.141  14.379  1.00  0.00    -0.175 NA
ATOM      7  C   UNL     1      14.318  34.741  15.572  1.00  0.00     0.155 A 
ATOM      8  C   UNL     1      15.679  34.842  15.813  1.00  0.00     0.098 A 
ATOM      9  C   UNL     1      16.277  34.273  14.702  1.00  0.00     0.092 A 
ENDROOT
BRANCH   1  10
ATOM     10  C   UNL     1      18.732  34.552  15.228  1.00  0.00     0.003 A 
ATOM     11  C   UNL     1      20.800  35.445  16.881  1.00  0.00     0.128 A 
ATOM     12  C   UNL     1      20.255  36.308  15.909  1.00  0.00     0.047 A 
ATOM     13  N   UNL     1      20.296  34.182  16.995  1.00  0.00    -0.239 NA
ATOM     14  C   UNL     1      19.217  35.858  15.090  1.00  0.00     0.014 A 
ATOM     15  C   UNL     1      19.291  33.723  16.206  1.00  0.00     0.122 A 
BRANCH  11  16
ATOM     16  N   UNL     1      21.868  35.866  17.758  1.00  0.00    -0.353 N 
ATOM     17  N   UNL     1      24.131  35.598  19.191  1.00  0.00    -0.289 NA
ATOM     18  C   UNL     1      22.998  36.146  19.951  1.00  0.00     0.078 C 
ATOM     19  C   UNL     1      24.063  36.834  18.393  1.00  0.00     0.078 C 
ATOM     20  C   UNL     1      23.259  37.568  19.463  1.00  0.00     0.042 C 
ATOM     21  C   UNL     1      21.729  35.637  19.227  1.00  0.00     0.137 C 
ATOM     22  C   UNL     1      23.097  36.526  17.224  1.00  0.00     0.137 C 
BRANCH  17  23
ATOM     23  C   UNL     1      25.355  35.534  20.017  1.00  0.00     0.122 C 
BRANCH  23  24
ATOM     24  C   UNL     1      26.065  34.232  19.771  1.00  0.00    -0.015 A 
ATOM     25  C   UNL     1      27.338  31.785  19.378  1.00  0.00     0.212 A 
ATOM     26  N   UNL     1      27.383  32.408  20.590  1.00  0.00    -0.222 NA
ATOM     27  C   UNL     1      26.649  32.381  18.319  1.00  0.00     0.069 A 
ATOM     28  C   UNL     1      26.770  33.601  20.808  1.00  0.00     0.120 A 
ATOM     29  C   UNL     1      26.006  33.605  18.519  1.00  0.00     0.012 A 
BRANCH  25  30
ATOM     30  O   UNL     1      27.971  30.553  19.182  1.00  0.00    -0.481 OA
ATOM     31  C   UNL     1      29.091  30.134  19.952  1.00  0.00     0.280 C 
ENDBRANCH  25  30
ENDBRANCH  23  24
ENDBRANCH  17  23
ENDBRANCH  11  16
ENDBRANCH   1  10
BRANCH   3  32
ATOM     32  O   UNL     1      17.222  32.365  11.102  1.00  0.00    -0.489 OA
BRANCH  32  33
ATOM     33  C   UNL     1      17.554  33.025   9.878  1.00  0.00     0.264 C 
BRANCH  33  34
ATOM     34  C   UNL     1      16.746  32.459   8.686  1.00  0.00     0.093 C 
ATOM     35  C   UNL     1      16.094  33.628   7.921  1.00  0.00     0.045 C 
ATOM     36  C   UNL     1      17.684  31.679   7.745  1.00  0.00     0.045 C 
BRANCH  34  37
ATOM     37  O   UNL     1      15.744  31.601   9.176  1.00  0.00    -0.387 OA
ATOM     38  H   UNL     1      16.016  31.295  10.081  1.00  0.00     0.211 HD
ENDBRANCH  34  37
ENDBRANCH  33  34
ENDBRANCH  32  33
ENDBRANCH   3  32
BRANCH   8  39
ATOM     39  C   UNL     1      16.294  35.368  17.003  1.00  0.00     0.103 C 
ATOM     40  N   UNL     1      16.787  35.792  17.959  1.00  0.00    -0.192 NA
ENDBRANCH   8  39
TORSDOF 10
ENDMDL
