MODEL 1
REMARK VINA RESULT:    -9.969      0.000      0.000
REMARK INTER + INTRA:         -16.037
REMARK INTER:                 -14.631
REMARK INTRA:                  -1.406
REMARK UNBOUND:                -1.406
REMARK SMILES CO[C@]1(C(=O)N[C@@H](C)c2ccc(-n3cc(F)cn3)nc2)CC[C@H](c2nc(C)cc(Nc3cc(C)[nH]n3)n2)CC1
REMARK SMILES IDX 3 1 21 2 22 3 23 4 38 5 39 6 2 7 1 8 4 9 5 10 6 11 7 13 8 14
REMARK SMILES IDX 9 15 10 16 20 17 11 18 19 19 12 20 13 21 14 22 18 23 15 24
REMARK SMILES IDX 17 25 16 26 24 27 37 28 25 29 29 30 26 31 28 32 27 33 30 34
REMARK SMILES IDX 31 36 36 37 32 38 35 39 33 40 34 42
REMARK H PARENT 6 12 30 35 35 41
REMARK Flexibility Score: inf
ROOT
ATOM      1  C   UNL     1      21.014  33.765  13.595  1.00  0.00     0.146 C 
ATOM      2  C   UNL     1      20.860  35.142  14.312  1.00  0.00     0.046 C 
ATOM      3  C   UNL     1      19.602  35.180  15.190  1.00  0.00     0.015 C 
ATOM      4  C   UNL     1      18.337  34.897  14.359  1.00  0.00     0.058 C 
ATOM      5  C   UNL     1      18.467  33.570  13.578  1.00  0.00     0.015 C 
ATOM      6  C   UNL     1      19.749  33.540  12.732  1.00  0.00     0.046 C 
ENDROOT
BRANCH   1   7
ATOM      7  O   UNL     1      21.094  32.676  14.521  1.00  0.00    -0.368 OA
ATOM      8  C   UNL     1      22.223  32.735  15.374  1.00  0.00     0.196 C 
ENDBRANCH   1   7
BRANCH   1   9
ATOM      9  C   UNL     1      22.205  33.758  12.648  1.00  0.00     0.252 C 
ATOM     10  O   UNL     1      22.427  32.751  11.921  1.00  0.00    -0.272 OA
ATOM     11  N   UNL     1      23.116  34.872  12.627  1.00  0.00    -0.347 N 
ATOM     12  H   UNL     1      22.950  35.667  13.289  1.00  0.00     0.164 HD
BRANCH  11  13
ATOM     13  C   UNL     1      24.260  34.961  11.710  1.00  0.00     0.111 C 
ATOM     14  C   UNL     1      24.648  36.427  11.513  1.00  0.00     0.036 C 
BRANCH  13  15
ATOM     15  C   UNL     1      25.444  34.162  12.221  1.00  0.00    -0.007 A 
ATOM     16  C   UNL     1      25.887  32.988  11.583  1.00  0.00     0.011 A 
ATOM     17  C   UNL     1      26.059  34.529  13.431  1.00  0.00     0.119 A 
ATOM     18  C   UNL     1      26.931  32.240  12.132  1.00  0.00     0.049 A 
ATOM     19  N   UNL     1      27.063  33.777  13.954  1.00  0.00    -0.237 NA
ATOM     20  C   UNL     1      27.522  32.649  13.344  1.00  0.00     0.153 A 
BRANCH  20  21
ATOM     21  N   UNL     1      28.576  31.895  13.971  1.00  0.00    -0.220 N 
ATOM     22  C   UNL     1      29.452  31.053  13.378  1.00  0.00     0.156 A 
ATOM     23  N   UNL     1      28.807  31.927  15.279  1.00  0.00    -0.172 NA
ATOM     24  C   UNL     1      30.271  30.541  14.359  1.00  0.00     0.161 A 
ATOM     25  C   UNL     1      29.843  31.106  15.541  1.00  0.00     0.174 A 
ATOM     26  F   UNL     1      31.284  29.654  14.196  1.00  0.00    -0.204 F 
ENDBRANCH  20  21
ENDBRANCH  13  15
ENDBRANCH  11  13
ENDBRANCH   1   9
BRANCH   4  27
ATOM     27  C   UNL     1      17.139  34.885  15.272  1.00  0.00     0.134 A 
ATOM     28  N   UNL     1      17.231  35.384  16.535  1.00  0.00    -0.215 NA
ATOM     29  N   UNL     1      15.928  34.495  14.792  1.00  0.00    -0.238 NA
ATOM     30  C   UNL     1      16.142  35.493  17.340  1.00  0.00     0.135 A 
ATOM     31  C   UNL     1      14.809  34.566  15.561  1.00  0.00     0.043 A 
ATOM     32  C   UNL     1      14.895  35.069  16.865  1.00  0.00     0.070 A 
ATOM     33  C   UNL     1      13.498  34.114  15.009  1.00  0.00     0.067 C 
BRANCH  30  34
ATOM     34  N   UNL     1      16.309  35.976  18.680  1.00  0.00    -0.323 N 
ATOM     35  H   UNL     1      15.454  36.236  19.211  1.00  0.00     0.170 HD
BRANCH  34  36
ATOM     36  C   UNL     1      17.577  36.084  19.344  1.00  0.00     0.153 A 
ATOM     37  N   UNL     1      18.224  35.021  19.864  1.00  0.00    -0.158 NA
ATOM     38  C   UNL     1      18.352  37.229  19.466  1.00  0.00     0.071 A 
ATOM     39  N   UNL     1      19.385  35.457  20.329  1.00  0.00    -0.281 N 
ATOM     40  C   UNL     1      19.494  36.780  20.097  1.00  0.00     0.034 A 
ATOM     41  H   UNL     1      20.108  34.848  20.766  1.00  0.00     0.190 HD
ATOM     42  C   UNL     1      20.671  37.618  20.488  1.00  0.00     0.066 C 
ENDBRANCH  34  36
ENDBRANCH  30  34
ENDBRANCH   4  27
TORSDOF 8
ENDMDL
MODEL 2
REMARK VINA RESULT:    -9.625      2.870      5.495
REMARK INTER + INTRA:         -15.532
REMARK INTER:                 -14.377
REMARK INTRA:                  -1.155
REMARK UNBOUND:                -1.406
REMARK SMILES CO[C@]1(C(=O)N[C@@H](C)c2ccc(-n3cc(F)cn3)nc2)CC[C@H](c2nc(C)cc(Nc3cc(C)[nH]n3)n2)CC1
REMARK SMILES IDX 3 1 21 2 22 3 23 4 38 5 39 6 2 7 1 8 4 9 5 10 6 11 7 13 8 14
REMARK SMILES IDX 9 15 10 16 20 17 11 18 19 19 12 20 13 21 14 22 18 23 15 24
REMARK SMILES IDX 17 25 16 26 24 27 37 28 25 29 29 30 26 31 28 32 27 33 30 34
REMARK SMILES IDX 31 36 36 37 32 38 35 39 33 40 34 42
REMARK H PARENT 6 12 30 35 35 41
REMARK Flexibility Score: inf
ROOT
ATOM      1  C   UNL     1      22.173  35.335  14.629  1.00  0.00     0.146 C 
ATOM      2  C   UNL     1      21.688  33.852  14.638  1.00  0.00     0.046 C 
ATOM      3  C   UNL     1      20.219  33.741  14.212  1.00  0.00     0.015 C 
ATOM      4  C   UNL     1      19.310  34.576  15.133  1.00  0.00     0.058 C 
ATOM      5  C   UNL     1      19.789  36.044  15.208  1.00  0.00     0.015 C 
ATOM      6  C   UNL     1      21.271  36.131  15.603  1.00  0.00     0.046 C 
ENDROOT
BRANCH   1   7
ATOM      7  O   UNL     1      22.044  35.942  13.339  1.00  0.00    -0.368 OA
ATOM      8  C   UNL     1      22.847  35.337  12.342  1.00  0.00     0.196 C 
ENDBRANCH   1   7
BRANCH   1   9
ATOM      9  C   UNL     1      23.601  35.460  15.145  1.00  0.00     0.252 C 
ATOM     10  O   UNL     1      24.187  36.576  15.112  1.00  0.00    -0.272 OA
ATOM     11  N   UNL     1      24.304  34.293  15.608  1.00  0.00    -0.347 N 
ATOM     12  H   UNL     1      23.820  33.364  15.561  1.00  0.00     0.164 HD
BRANCH  11  13
ATOM     13  C   UNL     1      25.662  34.338  16.163  1.00  0.00     0.111 C 
ATOM     14  C   UNL     1      25.634  33.905  17.629  1.00  0.00     0.036 C 
BRANCH  13  15
ATOM     15  C   UNL     1      26.615  33.463  15.370  1.00  0.00    -0.007 A 
ATOM     16  C   UNL     1      27.980  33.353  15.698  1.00  0.00     0.011 A 
ATOM     17  C   UNL     1      26.162  32.826  14.201  1.00  0.00     0.119 A 
ATOM     18  C   UNL     1      28.838  32.599  14.893  1.00  0.00     0.049 A 
ATOM     19  N   UNL     1      27.020  32.111  13.425  1.00  0.00    -0.237 NA
ATOM     20  C   UNL     1      28.339  31.973  13.735  1.00  0.00     0.153 A 
BRANCH  20  21
ATOM     21  N   UNL     1      29.188  31.216  12.851  1.00  0.00    -0.220 N 
ATOM     22  C   UNL     1      30.466  31.490  12.502  1.00  0.00     0.156 A 
ATOM     23  N   UNL     1      28.785  30.113  12.231  1.00  0.00    -0.172 NA
ATOM     24  C   UNL     1      30.880  30.510  11.627  1.00  0.00     0.161 A 
ATOM     25  C   UNL     1      29.804  29.660  11.475  1.00  0.00     0.174 A 
ATOM     26  F   UNL     1      32.092  30.408  11.030  1.00  0.00    -0.204 F 
ENDBRANCH  20  21
ENDBRANCH  13  15
ENDBRANCH  11  13
ENDBRANCH   1   9
BRANCH   4  27
ATOM     27  C   UNL     1      17.889  34.484  14.641  1.00  0.00     0.134 A 
ATOM     28  N   UNL     1      17.630  34.300  13.317  1.00  0.00    -0.215 NA
ATOM     29  N   UNL     1      16.865  34.452  15.536  1.00  0.00    -0.238 NA
ATOM     30  C   UNL     1      16.367  34.097  12.860  1.00  0.00     0.135 A 
ATOM     31  C   UNL     1      15.581  34.270  15.130  1.00  0.00     0.043 A 
ATOM     32  C   UNL     1      15.303  34.090  13.769  1.00  0.00     0.070 A 
ATOM     33  C   UNL     1      14.479  34.258  16.137  1.00  0.00     0.067 C 
BRANCH  30  34
ATOM     34  N   UNL     1      16.148  33.964  11.449  1.00  0.00    -0.323 N 
ATOM     35  H   UNL     1      15.376  34.516  11.024  1.00  0.00     0.170 HD
BRANCH  34  36
ATOM     36  C   UNL     1      16.953  33.150  10.584  1.00  0.00     0.153 A 
ATOM     37  N   UNL     1      17.672  32.098  11.026  1.00  0.00    -0.158 NA
ATOM     38  C   UNL     1      17.040  33.248   9.201  1.00  0.00     0.071 A 
ATOM     39  N   UNL     1      18.229  31.529   9.967  1.00  0.00    -0.281 N 
ATOM     40  C   UNL     1      17.861  32.194   8.854  1.00  0.00     0.034 A 
ATOM     41  H   UNL     1      18.823  30.675  10.005  1.00  0.00     0.190 HD
ATOM     42  C   UNL     1      18.300  31.841   7.468  1.00  0.00     0.066 C 
ENDBRANCH  34  36
ENDBRANCH  30  34
ENDBRANCH   4  27
TORSDOF 8
ENDMDL
MODEL 3
REMARK VINA RESULT:    -9.431      3.084      5.714
REMARK INTER + INTRA:         -15.248
REMARK INTER:                 -14.191
REMARK INTRA:                  -1.057
REMARK UNBOUND:                -1.406
REMARK SMILES CO[C@]1(C(=O)N[C@@H](C)c2ccc(-n3cc(F)cn3)nc2)CC[C@H](c2nc(C)cc(Nc3cc(C)[nH]n3)n2)CC1
REMARK SMILES IDX 3 1 21 2 22 3 23 4 38 5 39 6 2 7 1 8 4 9 5 10 6 11 7 13 8 14
REMARK SMILES IDX 9 15 10 16 20 17 11 18 19 19 12 20 13 21 14 22 18 23 15 24
REMARK SMILES IDX 17 25 16 26 24 27 37 28 25 29 29 30 26 31 28 32 27 33 30 34
REMARK SMILES IDX 31 36 36 37 32 38 35 39 33 40 34 42
REMARK H PARENT 6 12 30 35 35 41
REMARK Flexibility Score: inf
ROOT
ATOM      1  C   UNL     1      22.171  34.914  16.112  1.00  0.00     0.146 C 
ATOM      2  C   UNL     1      21.492  36.212  15.575  1.00  0.00     0.046 C 
ATOM      3  C   UNL     1      20.006  35.983  15.270  1.00  0.00     0.015 C 
ATOM      4  C   UNL     1      19.819  34.851  14.242  1.00  0.00     0.058 C 
ATOM      5  C   UNL     1      20.530  33.558  14.701  1.00  0.00     0.015 C 
ATOM      6  C   UNL     1      22.008  33.816  15.033  1.00  0.00     0.046 C 
ENDROOT
BRANCH   1   7
ATOM      7  O   UNL     1      21.548  34.429  17.307  1.00  0.00    -0.368 OA
ATOM      8  C   UNL     1      21.717  35.283  18.424  1.00  0.00     0.196 C 
ENDBRANCH   1   7
BRANCH   1   9
ATOM      9  C   UNL     1      23.666  35.110  16.323  1.00  0.00     0.252 C 
ATOM     10  O   UNL     1      24.167  36.265  16.250  1.00  0.00    -0.272 OA
ATOM     11  N   UNL     1      24.518  33.970  16.540  1.00  0.00    -0.347 N 
ATOM     12  H   UNL     1      24.089  33.014  16.527  1.00  0.00     0.164 HD
BRANCH  11  13
ATOM     13  C   UNL     1      25.959  34.080  16.798  1.00  0.00     0.111 C 
ATOM     14  C   UNL     1      26.287  33.466  18.159  1.00  0.00     0.036 C 
BRANCH  13  15
ATOM     15  C   UNL     1      26.771  33.411  15.705  1.00  0.00    -0.007 A 
ATOM     16  C   UNL     1      26.252  33.187  14.416  1.00  0.00     0.011 A 
ATOM     17  C   UNL     1      28.043  32.890  16.005  1.00  0.00     0.119 A 
ATOM     18  C   UNL     1      27.005  32.495  13.464  1.00  0.00     0.049 A 
ATOM     19  N   UNL     1      28.751  32.207  15.067  1.00  0.00    -0.237 NA
ATOM     20  C   UNL     1      28.278  31.997  13.807  1.00  0.00     0.153 A 
BRANCH  20  21
ATOM     21  N   UNL     1      29.080  31.247  12.876  1.00  0.00    -0.220 N 
ATOM     22  C   UNL     1      30.320  31.547  12.428  1.00  0.00     0.156 A 
ATOM     23  N   UNL     1      28.662  30.123  12.305  1.00  0.00    -0.172 NA
ATOM     24  C   UNL     1      30.696  30.563  11.541  1.00  0.00     0.161 A 
ATOM     25  C   UNL     1      29.635  29.683  11.483  1.00  0.00     0.174 A 
ATOM     26  F   UNL     1      31.863  30.482  10.858  1.00  0.00    -0.204 F 
ENDBRANCH  20  21
ENDBRANCH  13  15
ENDBRANCH  11  13
ENDBRANCH   1   9
BRANCH   4  27
ATOM     27  C   UNL     1      18.347  34.624  14.021  1.00  0.00     0.134 A 
ATOM     28  N   UNL     1      17.886  34.235  12.800  1.00  0.00    -0.215 NA
ATOM     29  N   UNL     1      17.489  34.679  15.074  1.00  0.00    -0.238 NA
ATOM     30  C   UNL     1      16.583  33.911  12.600  1.00  0.00     0.135 A 
ATOM     31  C   UNL     1      16.170  34.382  14.925  1.00  0.00     0.043 A 
ATOM     32  C   UNL     1      15.685  33.991  13.672  1.00  0.00     0.070 A 
ATOM     33  C   UNL     1      15.253  34.470  16.100  1.00  0.00     0.067 C 
BRANCH  30  34
ATOM     34  N   UNL     1      16.144  33.561  11.280  1.00  0.00    -0.323 N 
ATOM     35  H   UNL     1      15.204  33.888  10.980  1.00  0.00     0.170 HD
BRANCH  34  36
ATOM     36  C   UNL     1      16.938  32.825  10.338  1.00  0.00     0.153 A 
ATOM     37  N   UNL     1      17.899  31.956  10.710  1.00  0.00    -0.158 NA
ATOM     38  C   UNL     1      16.784  32.815   8.958  1.00  0.00     0.071 A 
ATOM     39  N   UNL     1      18.376  31.401   9.606  1.00  0.00    -0.281 N 
ATOM     40  C   UNL     1      17.720  31.892   8.536  1.00  0.00     0.034 A 
ATOM     41  H   UNL     1      19.117  30.669   9.590  1.00  0.00     0.190 HD
ATOM     42  C   UNL     1      17.990  31.499   7.118  1.00  0.00     0.066 C 
ENDBRANCH  34  36
ENDBRANCH  30  34
ENDBRANCH   4  27
TORSDOF 8
ENDMDL
MODEL 4
REMARK VINA RESULT:    -9.389      2.447      4.823
REMARK INTER + INTRA:         -15.187
REMARK INTER:                 -13.792
REMARK INTRA:                  -1.395
REMARK UNBOUND:                -1.406
REMARK SMILES CO[C@]1(C(=O)N[C@@H](C)c2ccc(-n3cc(F)cn3)nc2)CC[C@H](c2nc(C)cc(Nc3cc(C)[nH]n3)n2)CC1
REMARK SMILES IDX 3 1 21 2 22 3 23 4 38 5 39 6 2 7 1 8 4 9 5 10 6 11 7 13 8 14
REMARK SMILES IDX 9 15 10 16 20 17 11 18 19 19 12 20 13 21 14 22 18 23 15 24
REMARK SMILES IDX 17 25 16 26 24 27 37 28 25 29 29 30 26 31 28 32 27 33 30 34
REMARK SMILES IDX 31 36 36 37 32 38 35 39 33 40 34 42
REMARK H PARENT 6 12 30 35 35 41
REMARK Flexibility Score: inf
ROOT
ATOM      1  C   UNL     1      21.702  35.242  15.080  1.00  0.00     0.146 C 
ATOM      2  C   UNL     1      21.107  34.010  15.829  1.00  0.00     0.046 C 
ATOM      3  C   UNL     1      19.582  33.943  15.677  1.00  0.00     0.015 C 
ATOM      4  C   UNL     1      18.916  35.227  16.206  1.00  0.00     0.058 C 
ATOM      5  C   UNL     1      19.518  36.484  15.538  1.00  0.00     0.015 C 
ATOM      6  C   UNL     1      21.048  36.513  15.673  1.00  0.00     0.046 C 
ENDROOT
BRANCH   1   7
ATOM      7  O   UNL     1      21.402  35.225  13.680  1.00  0.00    -0.368 OA
ATOM      8  C   UNL     1      21.996  34.145  12.983  1.00  0.00     0.196 C 
ENDBRANCH   1   7
BRANCH   1   9
ATOM      9  C   UNL     1      23.202  35.366  15.309  1.00  0.00     0.252 C 
ATOM     10  O   UNL     1      23.820  36.388  14.902  1.00  0.00    -0.272 OA
ATOM     11  N   UNL     1      23.927  34.291  15.933  1.00  0.00    -0.347 N 
ATOM     12  H   UNL     1      23.404  33.423  16.200  1.00  0.00     0.164 HD
BRANCH  11  13
ATOM     13  C   UNL     1      25.363  34.353  16.231  1.00  0.00     0.111 C 
ATOM     14  C   UNL     1      25.623  33.790  17.629  1.00  0.00     0.036 C 
BRANCH  13  15
ATOM     15  C   UNL     1      26.179  33.602  15.196  1.00  0.00    -0.007 A 
ATOM     16  C   UNL     1      25.598  33.058  14.035  1.00  0.00     0.011 A 
ATOM     17  C   UNL     1      27.537  33.333  15.444  1.00  0.00     0.119 A 
ATOM     18  C   UNL     1      26.371  32.305  13.148  1.00  0.00     0.049 A 
ATOM     19  N   UNL     1      28.265  32.585  14.574  1.00  0.00    -0.237 NA
ATOM     20  C   UNL     1      27.729  32.067  13.433  1.00  0.00     0.153 A 
BRANCH  20  21
ATOM     21  N   UNL     1      28.561  31.267  12.572  1.00  0.00    -0.220 N 
ATOM     22  C   UNL     1      29.749  31.610  12.024  1.00  0.00     0.156 A 
ATOM     23  N   UNL     1      28.229  30.041  12.181  1.00  0.00    -0.172 NA
ATOM     24  C   UNL     1      30.180  30.548  11.260  1.00  0.00     0.161 A 
ATOM     25  C   UNL     1      29.206  29.579  11.377  1.00  0.00     0.174 A 
ATOM     26  F   UNL     1      31.322  30.475  10.534  1.00  0.00    -0.204 F 
ENDBRANCH  20  21
ENDBRANCH  13  15
ENDBRANCH  11  13
ENDBRANCH   1   9
BRANCH   4  27
ATOM     27  C   UNL     1      17.429  35.140  15.982  1.00  0.00     0.134 A 
ATOM     28  N   UNL     1      16.937  34.598  14.834  1.00  0.00    -0.215 NA
ATOM     29  N   UNL     1      16.574  35.485  16.981  1.00  0.00    -0.238 NA
ATOM     30  C   UNL     1      15.605  34.400  14.654  1.00  0.00     0.135 A 
ATOM     31  C   UNL     1      15.231  35.326  16.845  1.00  0.00     0.043 A 
ATOM     32  C   UNL     1      14.714  34.777  15.665  1.00  0.00     0.070 A 
ATOM     33  C   UNL     1      14.319  35.730  17.956  1.00  0.00     0.067 C 
BRANCH  30  34
ATOM     34  N   UNL     1      15.140  33.875  13.403  1.00  0.00    -0.323 N 
ATOM     35  H   UNL     1      14.131  33.636  13.323  1.00  0.00     0.170 HD
BRANCH  34  36
ATOM     36  C   UNL     1      15.971  33.697  12.246  1.00  0.00     0.153 A 
ATOM     37  N   UNL     1      16.199  34.679  11.350  1.00  0.00    -0.158 NA
ATOM     38  C   UNL     1      16.719  32.571  11.930  1.00  0.00     0.071 A 
ATOM     39  N   UNL     1      17.060  34.208  10.461  1.00  0.00    -0.281 N 
ATOM     40  C   UNL     1      17.397  32.944  10.787  1.00  0.00     0.034 A 
ATOM     41  H   UNL     1      17.438  34.758   9.662  1.00  0.00     0.190 HD
ATOM     42  C   UNL     1      18.346  32.089  10.009  1.00  0.00     0.066 C 
ENDBRANCH  34  36
ENDBRANCH  30  34
ENDBRANCH   4  27
TORSDOF 8
ENDMDL
MODEL 5
REMARK VINA RESULT:    -9.216      5.957     11.015
REMARK INTER + INTRA:         -14.932
REMARK INTER:                 -14.152
REMARK INTRA:                  -0.780
REMARK UNBOUND:                -1.406
REMARK SMILES CO[C@]1(C(=O)N[C@@H](C)c2ccc(-n3cc(F)cn3)nc2)CC[C@H](c2nc(C)cc(Nc3cc(C)[nH]n3)n2)CC1
REMARK SMILES IDX 3 1 21 2 22 3 23 4 38 5 39 6 2 7 1 8 4 9 5 10 6 11 7 13 8 14
REMARK SMILES IDX 9 15 10 16 20 17 11 18 19 19 12 20 13 21 14 22 18 23 15 24
REMARK SMILES IDX 17 25 16 26 24 27 37 28 25 29 29 30 26 31 28 32 27 33 30 34
REMARK SMILES IDX 31 36 36 37 32 38 35 39 33 40 34 42
REMARK H PARENT 6 12 30 35 35 41
REMARK Flexibility Score: inf
ROOT
ATOM      1  C   UNL     1      19.120  34.241  14.738  1.00  0.00     0.146 C 
ATOM      2  C   UNL     1      20.236  33.797  13.743  1.00  0.00     0.046 C 
ATOM      3  C   UNL     1      19.736  33.823  12.293  1.00  0.00     0.015 C 
ATOM      4  C   UNL     1      18.506  32.914  12.113  1.00  0.00     0.058 C 
ATOM      5  C   UNL     1      17.393  33.275  13.124  1.00  0.00     0.015 C 
ATOM      6  C   UNL     1      17.923  33.275  14.566  1.00  0.00     0.046 C 
ENDROOT
BRANCH   1   7
ATOM      7  O   UNL     1      18.641  35.562  14.464  1.00  0.00    -0.368 OA
ATOM      8  C   UNL     1      17.602  35.983  15.330  1.00  0.00     0.196 C 
ENDBRANCH   1   7
BRANCH   1   9
ATOM      9  C   UNL     1      19.581  34.123  16.185  1.00  0.00     0.252 C 
ATOM     10  O   UNL     1      19.297  33.092  16.854  1.00  0.00    -0.272 OA
ATOM     11  N   UNL     1      20.283  35.213  16.808  1.00  0.00    -0.347 N 
ATOM     12  H   UNL     1      20.447  36.087  16.253  1.00  0.00     0.164 HD
BRANCH  11  13
ATOM     13  C   UNL     1      20.801  35.158  18.181  1.00  0.00     0.111 C 
ATOM     14  C   UNL     1      22.301  35.456  18.178  1.00  0.00     0.036 C 
BRANCH  13  15
ATOM     15  C   UNL     1      20.069  36.128  19.090  1.00  0.00    -0.007 A 
ATOM     16  C   UNL     1      18.714  36.457  18.899  1.00  0.00     0.011 A 
ATOM     17  C   UNL     1      20.782  36.814  20.090  1.00  0.00     0.119 A 
ATOM     18  C   UNL     1      18.102  37.415  19.710  1.00  0.00     0.049 A 
ATOM     19  N   UNL     1      20.168  37.754  20.857  1.00  0.00    -0.237 NA
ATOM     20  C   UNL     1      18.853  38.073  20.704  1.00  0.00     0.153 A 
BRANCH  20  21
ATOM     21  N   UNL     1      18.280  39.094  21.542  1.00  0.00    -0.220 N 
ATOM     22  C   UNL     1      18.754  39.551  22.724  1.00  0.00     0.156 A 
ATOM     23  N   UNL     1      17.150  39.724  21.244  1.00  0.00    -0.172 NA
ATOM     24  C   UNL     1      17.882  40.514  23.180  1.00  0.00     0.161 A 
ATOM     25  C   UNL     1      16.885  40.601  22.232  1.00  0.00     0.174 A 
ATOM     26  F   UNL     1      17.979  41.223  24.332  1.00  0.00    -0.204 F 
ENDBRANCH  20  21
ENDBRANCH  13  15
ENDBRANCH  11  13
ENDBRANCH   1   9
BRANCH   4  27
ATOM     27  C   UNL     1      18.017  33.019  10.693  1.00  0.00     0.134 A 
ATOM     28  N   UNL     1      18.378  32.085   9.770  1.00  0.00    -0.215 NA
ATOM     29  N   UNL     1      17.108  33.974  10.360  1.00  0.00    -0.238 NA
ATOM     30  C   UNL     1      17.861  32.087   8.514  1.00  0.00     0.135 A 
ATOM     31  C   UNL     1      16.574  34.033   9.111  1.00  0.00     0.043 A 
ATOM     32  C   UNL     1      16.946  33.083   8.153  1.00  0.00     0.070 A 
ATOM     33  C   UNL     1      15.592  35.106   8.774  1.00  0.00     0.067 C 
BRANCH  30  34
ATOM     34  N   UNL     1      18.319  31.111   7.568  1.00  0.00    -0.323 N 
ATOM     35  H   UNL     1      19.322  31.135   7.294  1.00  0.00     0.170 HD
BRANCH  34  36
ATOM     36  C   UNL     1      17.490  30.081   7.011  1.00  0.00     0.153 A 
ATOM     37  N   UNL     1      17.986  28.927   6.520  1.00  0.00    -0.158 NA
ATOM     38  C   UNL     1      16.102  30.062   6.981  1.00  0.00     0.071 A 
ATOM     39  N   UNL     1      16.955  28.177   6.161  1.00  0.00    -0.281 N 
ATOM     40  C   UNL     1      15.808  28.830   6.432  1.00  0.00     0.034 A 
ATOM     41  H   UNL     1      17.037  27.216   5.768  1.00  0.00     0.190 HD
ATOM     42  C   UNL     1      14.438  28.293   6.159  1.00  0.00     0.066 C 
ENDBRANCH  34  36
ENDBRANCH  30  34
ENDBRANCH   4  27
TORSDOF 8
ENDMDL
MODEL 6
REMARK VINA RESULT:    -9.140      3.017      5.686
REMARK INTER + INTRA:         -14.822
REMARK INTER:                 -13.534
REMARK INTRA:                  -1.288
REMARK UNBOUND:                -1.406
REMARK SMILES CO[C@]1(C(=O)N[C@@H](C)c2ccc(-n3cc(F)cn3)nc2)CC[C@H](c2nc(C)cc(Nc3cc(C)[nH]n3)n2)CC1
REMARK SMILES IDX 3 1 21 2 22 3 23 4 38 5 39 6 2 7 1 8 4 9 5 10 6 11 7 13 8 14
REMARK SMILES IDX 9 15 10 16 20 17 11 18 19 19 12 20 13 21 14 22 18 23 15 24
REMARK SMILES IDX 17 25 16 26 24 27 37 28 25 29 29 30 26 31 28 32 27 33 30 34
REMARK SMILES IDX 31 36 36 37 32 38 35 39 33 40 34 42
REMARK H PARENT 6 12 30 35 35 41
REMARK Flexibility Score: inf
ROOT
ATOM      1  C   UNL     1      23.068  34.270  13.027  1.00  0.00     0.146 C 
ATOM      2  C   UNL     1      22.322  32.905  13.139  1.00  0.00     0.046 C 
ATOM      3  C   UNL     1      20.811  33.105  13.320  1.00  0.00     0.015 C 
ATOM      4  C   UNL     1      20.510  33.949  14.572  1.00  0.00     0.058 C 
ATOM      5  C   UNL     1      21.279  35.290  14.538  1.00  0.00     0.015 C 
ATOM      6  C   UNL     1      22.784  35.068  14.323  1.00  0.00     0.046 C 
ENDROOT
BRANCH   1   7
ATOM      7  O   UNL     1      22.596  35.060  11.931  1.00  0.00    -0.368 OA
ATOM      8  C   UNL     1      23.279  36.292  11.780  1.00  0.00     0.196 C 
ENDBRANCH   1   7
BRANCH   1   9
ATOM      9  C   UNL     1      24.576  34.079  12.946  1.00  0.00     0.252 C 
ATOM     10  O   UNL     1      25.089  33.538  11.928  1.00  0.00    -0.272 OA
ATOM     11  N   UNL     1      25.411  34.454  14.057  1.00  0.00    -0.347 N 
ATOM     12  H   UNL     1      24.955  34.837  14.919  1.00  0.00     0.164 HD
BRANCH  11  13
ATOM     13  C   UNL     1      26.875  34.345  14.038  1.00  0.00     0.111 C 
ATOM     14  C   UNL     1      27.496  35.741  14.086  1.00  0.00     0.036 C 
BRANCH  13  15
ATOM     15  C   UNL     1      27.384  33.498  15.189  1.00  0.00    -0.007 A 
ATOM     16  C   UNL     1      26.840  33.589  16.484  1.00  0.00     0.011 A 
ATOM     17  C   UNL     1      28.507  32.673  15.000  1.00  0.00     0.119 A 
ATOM     18  C   UNL     1      27.392  32.848  17.532  1.00  0.00     0.049 A 
ATOM     19  N   UNL     1      29.036  31.974  16.039  1.00  0.00    -0.237 NA
ATOM     20  C   UNL     1      28.513  32.030  17.296  1.00  0.00     0.153 A 
BRANCH  20  21
ATOM     21  N   UNL     1      29.143  31.275  18.348  1.00  0.00    -0.220 N 
ATOM     22  C   UNL     1      28.540  30.506  19.283  1.00  0.00     0.156 A 
ATOM     23  N   UNL     1      30.457  31.263  18.542  1.00  0.00    -0.172 NA
ATOM     24  C   UNL     1      29.524  29.986  20.095  1.00  0.00     0.161 A 
ATOM     25  C   UNL     1      30.716  30.478  19.607  1.00  0.00     0.174 A 
ATOM     26  F   UNL     1      29.354  29.167  21.161  1.00  0.00    -0.204 F 
ENDBRANCH  20  21
ENDBRANCH  13  15
ENDBRANCH  11  13
ENDBRANCH   1   9
BRANCH   4  27
ATOM     27  C   UNL     1      19.023  34.168  14.674  1.00  0.00     0.134 A 
ATOM     28  N   UNL     1      18.254  34.208  13.550  1.00  0.00    -0.215 NA
ATOM     29  N   UNL     1      18.426  34.196  15.896  1.00  0.00    -0.238 NA
ATOM     30  C   UNL     1      16.900  34.287  13.616  1.00  0.00     0.135 A 
ATOM     31  C   UNL     1      17.076  34.293  16.018  1.00  0.00     0.043 A 
ATOM     32  C   UNL     1      16.278  34.344  14.869  1.00  0.00     0.070 A 
ATOM     33  C   UNL     1      16.455  34.338  17.375  1.00  0.00     0.067 C 
BRANCH  30  34
ATOM     34  N   UNL     1      16.146  34.379  12.400  1.00  0.00    -0.323 N 
ATOM     35  H   UNL     1      15.334  35.030  12.382  1.00  0.00     0.170 HD
BRANCH  34  36
ATOM     36  C   UNL     1      16.466  33.663  11.198  1.00  0.00     0.153 A 
ATOM     37  N   UNL     1      16.416  32.319  11.111  1.00  0.00    -0.158 NA
ATOM     38  C   UNL     1      16.768  34.217   9.962  1.00  0.00     0.071 A 
ATOM     39  N   UNL     1      16.693  31.995   9.857  1.00  0.00    -0.281 N 
ATOM     40  C   UNL     1      16.903  33.117   9.139  1.00  0.00     0.034 A 
ATOM     41  H   UNL     1      16.703  31.020   9.491  1.00  0.00     0.190 HD
ATOM     42  C   UNL     1      17.244  33.144   7.683  1.00  0.00     0.066 C 
ENDBRANCH  34  36
ENDBRANCH  30  34
ENDBRANCH   4  27
TORSDOF 8
ENDMDL
MODEL 7
REMARK VINA RESULT:    -9.116      4.657     11.002
REMARK INTER + INTRA:         -14.786
REMARK INTER:                 -14.271
REMARK INTRA:                  -0.515
REMARK UNBOUND:                -1.406
REMARK SMILES CO[C@]1(C(=O)N[C@@H](C)c2ccc(-n3cc(F)cn3)nc2)CC[C@H](c2nc(C)cc(Nc3cc(C)[nH]n3)n2)CC1
REMARK SMILES IDX 3 1 21 2 22 3 23 4 38 5 39 6 2 7 1 8 4 9 5 10 6 11 7 13 8 14
REMARK SMILES IDX 9 15 10 16 20 17 11 18 19 19 12 20 13 21 14 22 18 23 15 24
REMARK SMILES IDX 17 25 16 26 24 27 37 28 25 29 29 30 26 31 28 32 27 33 30 34
REMARK SMILES IDX 31 36 36 37 32 38 35 39 33 40 34 42
REMARK H PARENT 6 12 30 35 35 41
REMARK Flexibility Score: inf
ROOT
ATOM      1  C   UNL     1      24.120  33.697  12.762  1.00  0.00     0.146 C 
ATOM      2  C   UNL     1      24.609  32.871  13.991  1.00  0.00     0.046 C 
ATOM      3  C   UNL     1      26.068  32.428  13.824  1.00  0.00     0.015 C 
ATOM      4  C   UNL     1      26.251  31.589  12.545  1.00  0.00     0.058 C 
ATOM      5  C   UNL     1      25.721  32.343  11.304  1.00  0.00     0.015 C 
ATOM      6  C   UNL     1      24.270  32.806  11.506  1.00  0.00     0.046 C 
ENDROOT
BRANCH   1   7
ATOM      7  O   UNL     1      24.911  34.870  12.546  1.00  0.00    -0.368 OA
ATOM      8  C   UNL     1      25.045  35.687  13.695  1.00  0.00     0.196 C 
ENDBRANCH   1   7
BRANCH   1   9
ATOM      9  C   UNL     1      22.644  34.054  12.879  1.00  0.00     0.252 C 
ATOM     10  O   UNL     1      22.153  34.955  12.145  1.00  0.00    -0.272 OA
ATOM     11  N   UNL     1      21.824  33.410  13.871  1.00  0.00    -0.347 N 
ATOM     12  H   UNL     1      22.270  32.715  14.515  1.00  0.00     0.164 HD
BRANCH  11  13
ATOM     13  C   UNL     1      20.385  33.665  14.015  1.00  0.00     0.111 C 
ATOM     14  C   UNL     1      20.159  35.119  14.432  1.00  0.00     0.036 C 
BRANCH  13  15
ATOM     15  C   UNL     1      19.635  33.358  12.732  1.00  0.00    -0.007 A 
ATOM     16  C   UNL     1      18.671  34.235  12.200  1.00  0.00     0.011 A 
ATOM     17  C   UNL     1      19.816  32.113  12.104  1.00  0.00     0.119 A 
ATOM     18  C   UNL     1      17.947  33.876  11.060  1.00  0.00     0.049 A 
ATOM     19  N   UNL     1      19.088  31.780  11.005  1.00  0.00    -0.237 NA
ATOM     20  C   UNL     1      18.166  32.620  10.460  1.00  0.00     0.153 A 
BRANCH  20  21
ATOM     21  N   UNL     1      17.421  32.187   9.306  1.00  0.00    -0.220 N 
ATOM     22  C   UNL     1      17.897  31.940   8.064  1.00  0.00     0.156 A 
ATOM     23  N   UNL     1      16.108  31.986   9.327  1.00  0.00    -0.172 NA
ATOM     24  C   UNL     1      16.832  31.564   7.275  1.00  0.00     0.161 A 
ATOM     25  C   UNL     1      15.723  31.603   8.094  1.00  0.00     0.174 A 
ATOM     26  F   UNL     1      16.867  31.234   5.961  1.00  0.00    -0.204 F 
ENDBRANCH  20  21
ENDBRANCH  13  15
ENDBRANCH  11  13
ENDBRANCH   1   9
BRANCH   4  27
ATOM     27  C   UNL     1      27.705  31.230  12.394  1.00  0.00     0.134 A 
ATOM     28  N   UNL     1      28.545  31.291  13.464  1.00  0.00    -0.215 NA
ATOM     29  N   UNL     1      28.156  30.718  11.217  1.00  0.00    -0.238 NA
ATOM     30  C   UNL     1      29.831  30.863  13.386  1.00  0.00     0.135 A 
ATOM     31  C   UNL     1      29.440  30.293  11.079  1.00  0.00     0.043 A 
ATOM     32  C   UNL     1      30.313  30.360  12.171  1.00  0.00     0.070 A 
ATOM     33  C   UNL     1      29.906  29.752   9.768  1.00  0.00     0.067 C 
BRANCH  30  34
ATOM     34  N   UNL     1      30.684  31.001  14.531  1.00  0.00    -0.323 N 
ATOM     35  H   UNL     1      31.688  31.216  14.364  1.00  0.00     0.170 HD
BRANCH  34  36
ATOM     36  C   UNL     1      30.230  30.903  15.888  1.00  0.00     0.153 A 
ATOM     37  N   UNL     1      30.805  30.088  16.796  1.00  0.00    -0.158 NA
ATOM     38  C   UNL     1      29.238  31.668  16.486  1.00  0.00     0.071 A 
ATOM     39  N   UNL     1      30.197  30.298  17.954  1.00  0.00    -0.281 N 
ATOM     40  C   UNL     1      29.254  31.249  17.801  1.00  0.00     0.034 A 
ATOM     41  H   UNL     1      30.451  29.822  18.845  1.00  0.00     0.190 HD
ATOM     42  C   UNL     1      28.363  31.747  18.894  1.00  0.00     0.066 C 
ENDBRANCH  34  36
ENDBRANCH  30  34
ENDBRANCH   4  27
TORSDOF 8
ENDMDL
MODEL 8
REMARK VINA RESULT:    -9.022      3.617     10.735
REMARK INTER + INTRA:         -14.648
REMARK INTER:                 -13.557
REMARK INTRA:                  -1.091
REMARK UNBOUND:                -1.406
REMARK SMILES CO[C@]1(C(=O)N[C@@H](C)c2ccc(-n3cc(F)cn3)nc2)CC[C@H](c2nc(C)cc(Nc3cc(C)[nH]n3)n2)CC1
REMARK SMILES IDX 3 1 21 2 22 3 23 4 38 5 39 6 2 7 1 8 4 9 5 10 6 11 7 13 8 14
REMARK SMILES IDX 9 15 10 16 20 17 11 18 19 19 12 20 13 21 14 22 18 23 15 24
REMARK SMILES IDX 17 25 16 26 24 27 37 28 25 29 29 30 26 31 28 32 27 33 30 34
REMARK SMILES IDX 31 36 36 37 32 38 35 39 33 40 34 42
REMARK H PARENT 6 12 30 35 35 41
REMARK Flexibility Score: inf
ROOT
ATOM      1  C   UNL     1      23.712  32.874  13.056  1.00  0.00     0.146 C 
ATOM      2  C   UNL     1      24.347  31.985  11.942  1.00  0.00     0.046 C 
ATOM      3  C   UNL     1      25.727  31.461  12.362  1.00  0.00     0.015 C 
ATOM      4  C   UNL     1      26.684  32.621  12.690  1.00  0.00     0.058 C 
ATOM      5  C   UNL     1      26.071  33.569  13.746  1.00  0.00     0.015 C 
ATOM      6  C   UNL     1      24.676  34.055  13.322  1.00  0.00     0.046 C 
ENDROOT
BRANCH   1   7
ATOM      7  O   UNL     1      23.556  32.168  14.291  1.00  0.00    -0.368 OA
ATOM      8  C   UNL     1      23.172  32.995  15.375  1.00  0.00     0.196 C 
ENDBRANCH   1   7
BRANCH   1   9
ATOM      9  C   UNL     1      22.388  33.475  12.605  1.00  0.00     0.252 C 
ATOM     10  O   UNL     1      22.337  34.680  12.233  1.00  0.00    -0.272 OA
ATOM     11  N   UNL     1      21.184  32.690  12.663  1.00  0.00    -0.347 N 
ATOM     12  H   UNL     1      21.240  31.714  13.041  1.00  0.00     0.164 HD
BRANCH  11  13
ATOM     13  C   UNL     1      19.879  33.181  12.203  1.00  0.00     0.111 C 
ATOM     14  C   UNL     1      19.150  32.072  11.444  1.00  0.00     0.036 C 
BRANCH  13  15
ATOM     15  C   UNL     1      19.032  33.677  13.361  1.00  0.00    -0.007 A 
ATOM     16  C   UNL     1      17.739  34.200  13.173  1.00  0.00     0.011 A 
ATOM     17  C   UNL     1      19.585  33.727  14.653  1.00  0.00     0.119 A 
ATOM     18  C   UNL     1      17.026  34.719  14.257  1.00  0.00     0.049 A 
ATOM     19  N   UNL     1      18.878  34.251  15.689  1.00  0.00    -0.237 NA
ATOM     20  C   UNL     1      17.617  34.743  15.535  1.00  0.00     0.153 A 
BRANCH  20  21
ATOM     21  N   UNL     1      16.941  35.300  16.678  1.00  0.00    -0.220 N 
ATOM     22  C   UNL     1      15.647  35.130  17.032  1.00  0.00     0.156 A 
ATOM     23  N   UNL     1      17.539  36.101  17.552  1.00  0.00    -0.172 NA
ATOM     24  C   UNL     1      15.429  35.856  18.183  1.00  0.00     0.161 A 
ATOM     25  C   UNL     1      16.633  36.455  18.485  1.00  0.00     0.174 A 
ATOM     26  F   UNL     1      14.265  35.966  18.869  1.00  0.00    -0.204 F 
ENDBRANCH  20  21
ENDBRANCH  13  15
ENDBRANCH  11  13
ENDBRANCH   1   9
BRANCH   4  27
ATOM     27  C   UNL     1      28.003  32.058  13.152  1.00  0.00     0.134 A 
ATOM     28  N   UNL     1      28.346  32.103  14.469  1.00  0.00    -0.215 NA
ATOM     29  N   UNL     1      28.796  31.387  12.275  1.00  0.00    -0.238 NA
ATOM     30  C   UNL     1      29.472  31.502  14.932  1.00  0.00     0.135 A 
ATOM     31  C   UNL     1      29.943  30.783  12.683  1.00  0.00     0.043 A 
ATOM     32  C   UNL     1      30.310  30.831  14.033  1.00  0.00     0.070 A 
ATOM     33  C   UNL     1      30.799  30.068  11.690  1.00  0.00     0.067 C 
BRANCH  30  34
ATOM     34  N   UNL     1      29.811  31.628  16.320  1.00  0.00    -0.323 N 
ATOM     35  H   UNL     1      30.791  31.882  16.559  1.00  0.00     0.170 HD
BRANCH  34  36
ATOM     36  C   UNL     1      28.874  31.466  17.395  1.00  0.00     0.153 A 
ATOM     37  N   UNL     1      28.816  30.353  18.154  1.00  0.00    -0.158 NA
ATOM     38  C   UNL     1      27.985  32.421  17.868  1.00  0.00     0.071 A 
ATOM     39  N   UNL     1      27.904  30.564  19.091  1.00  0.00    -0.281 N 
ATOM     40  C   UNL     1      27.391  31.802  18.950  1.00  0.00     0.034 A 
ATOM     41  H   UNL     1      27.662  29.880  19.839  1.00  0.00     0.190 HD
ATOM     42  C   UNL     1      26.332  32.390  19.827  1.00  0.00     0.066 C 
ENDBRANCH  34  36
ENDBRANCH  30  34
ENDBRANCH   4  27
TORSDOF 8
ENDMDL
MODEL 9
REMARK VINA RESULT:    -8.992      6.309     12.461
REMARK INTER + INTRA:         -14.603
REMARK INTER:                 -13.541
REMARK INTRA:                  -1.063
REMARK UNBOUND:                -1.406
REMARK SMILES CO[C@]1(C(=O)N[C@@H](C)c2ccc(-n3cc(F)cn3)nc2)CC[C@H](c2nc(C)cc(Nc3cc(C)[nH]n3)n2)CC1
REMARK SMILES IDX 3 1 21 2 22 3 23 4 38 5 39 6 2 7 1 8 4 9 5 10 6 11 7 13 8 14
REMARK SMILES IDX 9 15 10 16 20 17 11 18 19 19 12 20 13 21 14 22 18 23 15 24
REMARK SMILES IDX 17 25 16 26 24 27 37 28 25 29 29 30 26 31 28 32 27 33 30 34
REMARK SMILES IDX 31 36 36 37 32 38 35 39 33 40 34 42
REMARK H PARENT 6 12 30 35 35 41
REMARK Flexibility Score: inf
ROOT
ATOM      1  C   UNL     1      18.417  36.312  18.282  1.00  0.00     0.146 C 
ATOM      2  C   UNL     1      19.541  36.902  17.376  1.00  0.00     0.046 C 
ATOM      3  C   UNL     1      19.521  36.273  15.977  1.00  0.00     0.015 C 
ATOM      4  C   UNL     1      19.684  34.743  16.054  1.00  0.00     0.058 C 
ATOM      5  C   UNL     1      18.628  34.117  16.993  1.00  0.00     0.015 C 
ATOM      6  C   UNL     1      18.642  34.784  18.378  1.00  0.00     0.046 C 
ENDROOT
BRANCH   1   7
ATOM      7  O   UNL     1      17.111  36.514  17.730  1.00  0.00    -0.368 OA
ATOM      8  C   UNL     1      16.061  36.077  18.574  1.00  0.00     0.196 C 
ENDBRANCH   1   7
BRANCH   1   9
ATOM      9  C   UNL     1      18.494  36.862  19.699  1.00  0.00     0.252 C 
ATOM     10  O   UNL     1      18.540  36.070  20.681  1.00  0.00    -0.272 OA
ATOM     11  N   UNL     1      18.451  38.283  19.924  1.00  0.00    -0.347 N 
ATOM     12  H   UNL     1      18.344  38.918  19.098  1.00  0.00     0.164 HD
BRANCH  11  13
ATOM     13  C   UNL     1      18.568  38.891  21.256  1.00  0.00     0.111 C 
ATOM     14  C   UNL     1      20.041  39.150  21.575  1.00  0.00     0.036 C 
BRANCH  13  15
ATOM     15  C   UNL     1      17.771  40.179  21.349  1.00  0.00    -0.007 A 
ATOM     16  C   UNL     1      16.367  40.186  21.447  1.00  0.00     0.011 A 
ATOM     17  C   UNL     1      18.432  41.415  21.222  1.00  0.00     0.119 A 
ATOM     18  C   UNL     1      15.668  41.395  21.450  1.00  0.00     0.049 A 
ATOM     19  N   UNL     1      17.728  42.578  21.213  1.00  0.00    -0.237 NA
ATOM     20  C   UNL     1      16.371  42.610  21.327  1.00  0.00     0.153 A 
BRANCH  20  21
ATOM     21  N   UNL     1      15.697  43.881  21.288  1.00  0.00    -0.220 N 
ATOM     22  C   UNL     1      14.363  44.107  21.292  1.00  0.00     0.156 A 
ATOM     23  N   UNL     1      16.343  45.040  21.222  1.00  0.00    -0.172 NA
ATOM     24  C   UNL     1      14.169  45.469  21.230  1.00  0.00     0.161 A 
ATOM     25  C   UNL     1      15.428  46.028  21.186  1.00  0.00     0.174 A 
ATOM     26  F   UNL     1      12.982  46.123  21.206  1.00  0.00    -0.204 F 
ENDBRANCH  20  21
ENDBRANCH  13  15
ENDBRANCH  11  13
ENDBRANCH   1   9
BRANCH   4  27
ATOM     27  C   UNL     1      19.598  34.166  14.665  1.00  0.00     0.134 A 
ATOM     28  N   UNL     1      18.493  34.379  13.898  1.00  0.00    -0.215 NA
ATOM     29  N   UNL     1      20.679  33.542  14.125  1.00  0.00    -0.238 NA
ATOM     30  C   UNL     1      18.435  33.971  12.604  1.00  0.00     0.135 A 
ATOM     31  C   UNL     1      20.667  33.098  12.841  1.00  0.00     0.043 A 
ATOM     32  C   UNL     1      19.532  33.303  12.047  1.00  0.00     0.070 A 
ATOM     33  C   UNL     1      21.865  32.401  12.285  1.00  0.00     0.067 C 
BRANCH  30  34
ATOM     34  N   UNL     1      17.225  34.175  11.861  1.00  0.00    -0.323 N 
ATOM     35  H   UNL     1      16.603  34.956  12.154  1.00  0.00     0.170 HD
BRANCH  34  36
ATOM     36  C   UNL     1      16.843  33.397  10.718  1.00  0.00     0.153 A 
ATOM     37  N   UNL     1      16.234  32.198  10.819  1.00  0.00    -0.158 NA
ATOM     38  C   UNL     1      16.942  33.778   9.387  1.00  0.00     0.071 A 
ATOM     39  N   UNL     1      15.954  31.794   9.589  1.00  0.00    -0.281 N 
ATOM     40  C   UNL     1      16.362  32.727   8.706  1.00  0.00     0.034 A 
ATOM     41  H   UNL     1      15.459  30.907   9.361  1.00  0.00     0.190 HD
ATOM     42  C   UNL     1      16.215  32.615   7.221  1.00  0.00     0.066 C 
ENDBRANCH  34  36
ENDBRANCH  30  34
ENDBRANCH   4  27
TORSDOF 8
ENDMDL
MODEL 10
REMARK VINA RESULT:    -8.990      4.114     10.869
REMARK INTER + INTRA:         -14.601
REMARK INTER:                 -13.328
REMARK INTRA:                  -1.273
REMARK UNBOUND:                -1.406
REMARK SMILES CO[C@]1(C(=O)N[C@@H](C)c2ccc(-n3cc(F)cn3)nc2)CC[C@H](c2nc(C)cc(Nc3cc(C)[nH]n3)n2)CC1
REMARK SMILES IDX 3 1 21 2 22 3 23 4 38 5 39 6 2 7 1 8 4 9 5 10 6 11 7 13 8 14
REMARK SMILES IDX 9 15 10 16 20 17 11 18 19 19 12 20 13 21 14 22 18 23 15 24
REMARK SMILES IDX 17 25 16 26 24 27 37 28 25 29 29 30 26 31 28 32 27 33 30 34
REMARK SMILES IDX 31 36 36 37 32 38 35 39 33 40 34 42
REMARK H PARENT 6 12 30 35 35 41
REMARK Flexibility Score: inf
ROOT
ATOM      1  C   UNL     1      21.617  34.150  15.606  1.00  0.00     0.146 C 
ATOM      2  C   UNL     1      22.570  32.970  15.972  1.00  0.00     0.046 C 
ATOM      3  C   UNL     1      24.033  33.428  16.032  1.00  0.00     0.015 C 
ATOM      4  C   UNL     1      24.477  34.041  14.690  1.00  0.00     0.058 C 
ATOM      5  C   UNL     1      23.524  35.176  14.253  1.00  0.00     0.015 C 
ATOM      6  C   UNL     1      22.062  34.705  14.232  1.00  0.00     0.046 C 
ENDROOT
BRANCH   1   7
ATOM      7  O   UNL     1      21.700  35.227  16.545  1.00  0.00    -0.368 OA
ATOM      8  C   UNL     1      21.217  34.897  17.835  1.00  0.00     0.196 C 
ENDBRANCH   1   7
BRANCH   1   9
ATOM      9  C   UNL     1      20.178  33.679  15.449  1.00  0.00     0.252 C 
ATOM     10  O   UNL     1      19.840  32.536  15.864  1.00  0.00    -0.272 OA
ATOM     11  N   UNL     1      19.218  34.509  14.771  1.00  0.00    -0.347 N 
ATOM     12  H   UNL     1      19.540  35.424  14.373  1.00  0.00     0.164 HD
BRANCH  11  13
ATOM     13  C   UNL     1      17.803  34.147  14.621  1.00  0.00     0.111 C 
ATOM     14  C   UNL     1      16.924  35.329  15.031  1.00  0.00     0.036 C 
BRANCH  13  15
ATOM     15  C   UNL     1      17.487  33.719  13.200  1.00  0.00    -0.007 A 
ATOM     16  C   UNL     1      16.400  34.250  12.481  1.00  0.00     0.011 A 
ATOM     17  C   UNL     1      18.225  32.677  12.609  1.00  0.00     0.119 A 
ATOM     18  C   UNL     1      16.097  33.769  11.205  1.00  0.00     0.049 A 
ATOM     19  N   UNL     1      17.902  32.215  11.372  1.00  0.00    -0.237 NA
ATOM     20  C   UNL     1      16.868  32.729  10.649  1.00  0.00     0.153 A 
BRANCH  20  21
ATOM     21  N   UNL     1      16.576  32.172   9.354  1.00  0.00    -0.220 N 
ATOM     22  C   UNL     1      17.394  32.117   8.278  1.00  0.00     0.156 A 
ATOM     23  N   UNL     1      15.401  31.636   9.046  1.00  0.00    -0.172 NA
ATOM     24  C   UNL     1      16.698  31.515   7.254  1.00  0.00     0.161 A 
ATOM     25  C   UNL     1      15.451  31.225   7.764  1.00  0.00     0.174 A 
ATOM     26  F   UNL     1      17.146  31.268   5.998  1.00  0.00    -0.204 F 
ENDBRANCH  20  21
ENDBRANCH  13  15
ENDBRANCH  11  13
ENDBRANCH   1   9
BRANCH   4  27
ATOM     27  C   UNL     1      25.897  34.529  14.817  1.00  0.00     0.134 A 
ATOM     28  N   UNL     1      26.817  34.225  13.860  1.00  0.00    -0.215 NA
ATOM     29  N   UNL     1      26.231  35.384  15.821  1.00  0.00    -0.238 NA
ATOM     30  C   UNL     1      28.071  34.746  13.887  1.00  0.00     0.135 A 
ATOM     31  C   UNL     1      27.477  35.919  15.905  1.00  0.00     0.043 A 
ATOM     32  C   UNL     1      28.433  35.606  14.931  1.00  0.00     0.070 A 
ATOM     33  C   UNL     1      27.815  36.840  17.030  1.00  0.00     0.067 C 
BRANCH  30  34
ATOM     34  N   UNL     1      29.014  34.349  12.882  1.00  0.00    -0.323 N 
ATOM     35  H   UNL     1      29.554  35.096  12.402  1.00  0.00     0.170 HD
BRANCH  34  36
ATOM     36  C   UNL     1      29.287  32.985  12.530  1.00  0.00     0.153 A 
ATOM     37  N   UNL     1      29.900  32.121  13.364  1.00  0.00    -0.158 NA
ATOM     38  C   UNL     1      28.893  32.337  11.367  1.00  0.00     0.071 A 
ATOM     39  N   UNL     1      29.924  30.942  12.761  1.00  0.00    -0.281 N 
ATOM     40  C   UNL     1      29.319  31.038  11.561  1.00  0.00     0.034 A 
ATOM     41  H   UNL     1      30.318  30.075  13.184  1.00  0.00     0.190 HD
ATOM     42  C   UNL     1      29.159  29.906  10.595  1.00  0.00     0.066 C 
ENDBRANCH  34  36
ENDBRANCH  30  34
ENDBRANCH   4  27
TORSDOF 8
ENDMDL
MODEL 11
REMARK VINA RESULT:    -8.908      2.858      4.216
REMARK INTER + INTRA:         -14.480
REMARK INTER:                 -13.404
REMARK INTRA:                  -1.076
REMARK UNBOUND:                -1.406
REMARK SMILES CO[C@]1(C(=O)N[C@@H](C)c2ccc(-n3cc(F)cn3)nc2)CC[C@H](c2nc(C)cc(Nc3cc(C)[nH]n3)n2)CC1
REMARK SMILES IDX 3 1 21 2 22 3 23 4 38 5 39 6 2 7 1 8 4 9 5 10 6 11 7 13 8 14
REMARK SMILES IDX 9 15 10 16 20 17 11 18 19 19 12 20 13 21 14 22 18 23 15 24
REMARK SMILES IDX 17 25 16 26 24 27 37 28 25 29 29 30 26 31 28 32 27 33 30 34
REMARK SMILES IDX 31 36 36 37 32 38 35 39 33 40 34 42
REMARK H PARENT 6 12 30 35 35 41
REMARK Flexibility Score: inf
ROOT
ATOM      1  C   UNL     1      23.277  34.188  12.908  1.00  0.00     0.146 C 
ATOM      2  C   UNL     1      22.609  32.788  12.746  1.00  0.00     0.046 C 
ATOM      3  C   UNL     1      21.084  32.905  12.627  1.00  0.00     0.015 C 
ATOM      4  C   UNL     1      20.485  33.612  13.857  1.00  0.00     0.058 C 
ATOM      5  C   UNL     1      21.161  34.980  14.098  1.00  0.00     0.015 C 
ATOM      6  C   UNL     1      22.689  34.845  14.180  1.00  0.00     0.046 C 
ENDROOT
BRANCH   1   7
ATOM      7  O   UNL     1      22.989  35.059  11.810  1.00  0.00    -0.368 OA
ATOM      8  C   UNL     1      23.645  36.312  11.888  1.00  0.00     0.196 C 
ENDBRANCH   1   7
BRANCH   1   9
ATOM      9  C   UNL     1      24.779  34.070  13.125  1.00  0.00     0.252 C 
ATOM     10  O   UNL     1      25.498  33.495  12.262  1.00  0.00    -0.272 OA
ATOM     11  N   UNL     1      25.372  34.556  14.343  1.00  0.00    -0.347 N 
ATOM     12  H   UNL     1      24.746  34.967  15.076  1.00  0.00     0.164 HD
BRANCH  11  13
ATOM     13  C   UNL     1      26.817  34.521  14.606  1.00  0.00     0.111 C 
ATOM     14  C   UNL     1      27.338  35.945  14.805  1.00  0.00     0.036 C 
BRANCH  13  15
ATOM     15  C   UNL     1      27.140  33.664  15.815  1.00  0.00    -0.007 A 
ATOM     16  C   UNL     1      26.364  33.700  16.989  1.00  0.00     0.011 A 
ATOM     17  C   UNL     1      28.313  32.887  15.821  1.00  0.00     0.119 A 
ATOM     18  C   UNL     1      26.745  32.954  18.107  1.00  0.00     0.049 A 
ATOM     19  N   UNL     1      28.670  32.182  16.927  1.00  0.00    -0.237 NA
ATOM     20  C   UNL     1      27.924  32.185  18.066  1.00  0.00     0.153 A 
BRANCH  20  21
ATOM     21  N   UNL     1      28.380  31.427  19.202  1.00  0.00    -0.220 N 
ATOM     22  C   UNL     1      28.486  30.083  19.307  1.00  0.00     0.156 A 
ATOM     23  N   UNL     1      28.752  31.992  20.346  1.00  0.00    -0.172 NA
ATOM     24  C   UNL     1      28.950  29.796  20.572  1.00  0.00     0.161 A 
ATOM     25  C   UNL     1      29.107  31.013  21.201  1.00  0.00     0.174 A 
ATOM     26  F   UNL     1      29.191  28.568  21.093  1.00  0.00    -0.204 F 
ENDBRANCH  20  21
ENDBRANCH  13  15
ENDBRANCH  11  13
ENDBRANCH   1   9
BRANCH   4  27
ATOM     27  C   UNL     1      18.997  33.756  13.667  1.00  0.00     0.134 A 
ATOM     28  N   UNL     1      18.166  33.785  14.745  1.00  0.00    -0.215 NA
ATOM     29  N   UNL     1      18.494  33.987  12.425  1.00  0.00    -0.238 NA
ATOM     30  C   UNL     1      16.837  34.030  14.612  1.00  0.00     0.135 A 
ATOM     31  C   UNL     1      17.168  34.220  12.235  1.00  0.00     0.043 A 
ATOM     32  C   UNL     1      16.303  34.243  13.336  1.00  0.00     0.070 A 
ATOM     33  C   UNL     1      16.646  34.454  10.856  1.00  0.00     0.067 C 
BRANCH  30  34
ATOM     34  N   UNL     1      16.001  33.996  15.778  1.00  0.00    -0.323 N 
ATOM     35  H   UNL     1      15.317  33.217  15.861  1.00  0.00     0.170 HD
BRANCH  34  36
ATOM     36  C   UNL     1      16.078  34.945  16.851  1.00  0.00     0.153 A 
ATOM     37  N   UNL     1      15.018  35.274  17.617  1.00  0.00    -0.158 NA
ATOM     38  C   UNL     1      17.224  35.574  17.317  1.00  0.00     0.071 A 
ATOM     39  N   UNL     1      15.450  36.108  18.550  1.00  0.00    -0.281 N 
ATOM     40  C   UNL     1      16.775  36.302  18.401  1.00  0.00     0.034 A 
ATOM     41  H   UNL     1      14.850  36.509  19.301  1.00  0.00     0.190 HD
ATOM     42  C   UNL     1      17.609  37.187  19.273  1.00  0.00     0.066 C 
ENDBRANCH  34  36
ENDBRANCH  30  34
ENDBRANCH   4  27
TORSDOF 8
ENDMDL
MODEL 12
REMARK VINA RESULT:    -8.895      3.866      6.640
REMARK INTER + INTRA:         -14.462
REMARK INTER:                 -13.353
REMARK INTRA:                  -1.109
REMARK UNBOUND:                -1.406
REMARK SMILES CO[C@]1(C(=O)N[C@@H](C)c2ccc(-n3cc(F)cn3)nc2)CC[C@H](c2nc(C)cc(Nc3cc(C)[nH]n3)n2)CC1
REMARK SMILES IDX 3 1 21 2 22 3 23 4 38 5 39 6 2 7 1 8 4 9 5 10 6 11 7 13 8 14
REMARK SMILES IDX 9 15 10 16 20 17 11 18 19 19 12 20 13 21 14 22 18 23 15 24
REMARK SMILES IDX 17 25 16 26 24 27 37 28 25 29 29 30 26 31 28 32 27 33 30 34
REMARK SMILES IDX 31 36 36 37 32 38 35 39 33 40 34 42
REMARK H PARENT 6 12 30 35 35 41
REMARK Flexibility Score: inf
ROOT
ATOM      1  C   UNL     1      22.817  33.147  13.894  1.00  0.00     0.146 C 
ATOM      2  C   UNL     1      22.282  34.611  13.856  1.00  0.00     0.046 C 
ATOM      3  C   UNL     1      20.760  34.648  13.666  1.00  0.00     0.015 C 
ATOM      4  C   UNL     1      20.347  33.924  12.371  1.00  0.00     0.058 C 
ATOM      5  C   UNL     1      20.909  32.485  12.332  1.00  0.00     0.015 C 
ATOM      6  C   UNL     1      22.428  32.469  12.558  1.00  0.00     0.046 C 
ENDROOT
BRANCH   1   7
ATOM      7  O   UNL     1      22.226  32.378  14.947  1.00  0.00    -0.368 OA
ATOM      8  C   UNL     1      22.551  32.845  16.245  1.00  0.00     0.196 C 
ENDBRANCH   1   7
BRANCH   1   9
ATOM      9  C   UNL     1      24.337  33.108  13.985  1.00  0.00     0.252 C 
ATOM     10  O   UNL     1      24.957  32.040  13.729  1.00  0.00    -0.272 OA
ATOM     11  N   UNL     1      25.062  34.271  14.424  1.00  0.00    -0.347 N 
ATOM     12  H   UNL     1      24.520  35.125  14.698  1.00  0.00     0.164 HD
BRANCH  11  13
ATOM     13  C   UNL     1      26.527  34.328  14.493  1.00  0.00     0.111 C 
ATOM     14  C   UNL     1      26.980  35.783  14.622  1.00  0.00     0.036 C 
BRANCH  13  15
ATOM     15  C   UNL     1      27.062  33.502  15.648  1.00  0.00    -0.007 A 
ATOM     16  C   UNL     1      26.457  33.511  16.919  1.00  0.00     0.011 A 
ATOM     17  C   UNL     1      28.264  32.789  15.493  1.00  0.00     0.119 A 
ATOM     18  C   UNL     1      27.029  32.798  17.975  1.00  0.00     0.049 A 
ATOM     19  N   UNL     1      28.809  32.115  16.540  1.00  0.00    -0.237 NA
ATOM     20  C   UNL     1      28.230  32.092  17.772  1.00  0.00     0.153 A 
BRANCH  20  21
ATOM     21  N   UNL     1      28.880  31.371  18.836  1.00  0.00    -0.220 N 
ATOM     22  C   UNL     1      28.525  30.175  19.357  1.00  0.00     0.156 A 
ATOM     23  N   UNL     1      29.950  31.833  19.473  1.00  0.00    -0.172 NA
ATOM     24  C   UNL     1      29.418  29.874  20.363  1.00  0.00     0.161 A 
ATOM     25  C   UNL     1      30.299  30.933  20.414  1.00  0.00     0.174 A 
ATOM     26  F   UNL     1      29.420  28.770  21.148  1.00  0.00    -0.204 F 
ENDBRANCH  20  21
ENDBRANCH  13  15
ENDBRANCH  11  13
ENDBRANCH   1   9
BRANCH   4  27
ATOM     27  C   UNL     1      18.845  33.934  12.258  1.00  0.00     0.134 A 
ATOM     28  N   UNL     1      18.242  33.659  11.068  1.00  0.00    -0.215 NA
ATOM     29  N   UNL     1      18.084  34.089  13.375  1.00  0.00    -0.238 NA
ATOM     30  C   UNL     1      16.893  33.547  10.963  1.00  0.00     0.135 A 
ATOM     31  C   UNL     1      16.729  34.004  13.321  1.00  0.00     0.043 A 
ATOM     32  C   UNL     1      16.099  33.731  12.101  1.00  0.00     0.070 A 
ATOM     33  C   UNL     1      15.923  34.196  14.563  1.00  0.00     0.067 C 
BRANCH  30  34
ATOM     34  N   UNL     1      16.311  33.310   9.673  1.00  0.00    -0.323 N 
ATOM     35  H   UNL     1      15.590  33.980   9.336  1.00  0.00     0.170 HD
BRANCH  34  36
ATOM     36  C   UNL     1      16.690  32.232   8.805  1.00  0.00     0.153 A 
ATOM     37  N   UNL     1      15.928  31.134   8.624  1.00  0.00    -0.158 NA
ATOM     38  C   UNL     1      17.802  32.191   7.975  1.00  0.00     0.071 A 
ATOM     39  N   UNL     1      16.528  30.384   7.712  1.00  0.00    -0.281 N 
ATOM     40  C   UNL     1      17.655  30.997   7.297  1.00  0.00     0.034 A 
ATOM     41  H   UNL     1      16.151  29.482   7.354  1.00  0.00     0.190 HD
ATOM     42  C   UNL     1      18.596  30.445   6.274  1.00  0.00     0.066 C 
ENDBRANCH  34  36
ENDBRANCH  30  34
ENDBRANCH   4  27
TORSDOF 8
ENDMDL
MODEL 13
REMARK VINA RESULT:    -8.882      5.645      9.758
REMARK INTER + INTRA:         -14.442
REMARK INTER:                 -13.492
REMARK INTRA:                  -0.951
REMARK UNBOUND:                -1.406
REMARK SMILES CO[C@]1(C(=O)N[C@@H](C)c2ccc(-n3cc(F)cn3)nc2)CC[C@H](c2nc(C)cc(Nc3cc(C)[nH]n3)n2)CC1
REMARK SMILES IDX 3 1 21 2 22 3 23 4 38 5 39 6 2 7 1 8 4 9 5 10 6 11 7 13 8 14
REMARK SMILES IDX 9 15 10 16 20 17 11 18 19 19 12 20 13 21 14 22 18 23 15 24
REMARK SMILES IDX 17 25 16 26 24 27 37 28 25 29 29 30 26 31 28 32 27 33 30 34
REMARK SMILES IDX 31 36 36 37 32 38 35 39 33 40 34 42
REMARK H PARENT 6 12 30 35 35 41
REMARK Flexibility Score: inf
ROOT
ATOM      1  C   UNL     1      19.443  33.997  14.746  1.00  0.00     0.146 C 
ATOM      2  C   UNL     1      20.405  33.278  13.750  1.00  0.00     0.046 C 
ATOM      3  C   UNL     1      19.888  33.369  12.308  1.00  0.00     0.015 C 
ATOM      4  C   UNL     1      18.480  32.757  12.184  1.00  0.00     0.058 C 
ATOM      5  C   UNL     1      17.503  33.394  13.199  1.00  0.00     0.015 C 
ATOM      6  C   UNL     1      18.055  33.322  14.631  1.00  0.00     0.046 C 
ENDROOT
BRANCH   1   7
ATOM      7  O   UNL     1      19.269  35.382  14.430  1.00  0.00    -0.368 OA
ATOM      8  C   UNL     1      18.528  36.099  15.401  1.00  0.00     0.196 C 
ENDBRANCH   1   7
BRANCH   1   9
ATOM      9  C   UNL     1      19.901  33.824  16.188  1.00  0.00     0.252 C 
ATOM     10  O   UNL     1      19.096  33.393  17.058  1.00  0.00    -0.272 OA
ATOM     11  N   UNL     1      21.233  34.214  16.572  1.00  0.00    -0.347 N 
ATOM     12  H   UNL     1      21.861  34.635  15.847  1.00  0.00     0.164 HD
BRANCH  11  13
ATOM     13  C   UNL     1      21.764  34.037  17.930  1.00  0.00     0.111 C 
ATOM     14  C   UNL     1      23.035  33.189  17.877  1.00  0.00     0.036 C 
BRANCH  13  15
ATOM     15  C   UNL     1      22.043  35.371  18.596  1.00  0.00    -0.007 A 
ATOM     16  C   UNL     1      21.012  36.258  18.957  1.00  0.00     0.011 A 
ATOM     17  C   UNL     1      23.373  35.799  18.762  1.00  0.00     0.119 A 
ATOM     18  C   UNL     1      21.318  37.511  19.495  1.00  0.00     0.049 A 
ATOM     19  N   UNL     1      23.646  37.028  19.273  1.00  0.00    -0.237 NA
ATOM     20  C   UNL     1      22.665  37.895  19.649  1.00  0.00     0.153 A 
BRANCH  20  21
ATOM     21  N   UNL     1      23.035  39.188  20.164  1.00  0.00    -0.220 N 
ATOM     22  C   UNL     1      23.174  39.549  21.460  1.00  0.00     0.156 A 
ATOM     23  N   UNL     1      23.276  40.235  19.383  1.00  0.00    -0.172 NA
ATOM     24  C   UNL     1      23.524  40.881  21.489  1.00  0.00     0.161 A 
ATOM     25  C   UNL     1      23.579  41.285  20.172  1.00  0.00     0.174 A 
ATOM     26  F   UNL     1      23.754  41.640  22.587  1.00  0.00    -0.204 F 
ENDBRANCH  20  21
ENDBRANCH  13  15
ENDBRANCH  11  13
ENDBRANCH   1   9
BRANCH   4  27
ATOM     27  C   UNL     1      17.992  32.923  10.769  1.00  0.00     0.134 A 
ATOM     28  N   UNL     1      18.350  32.027   9.808  1.00  0.00    -0.215 NA
ATOM     29  N   UNL     1      17.087  33.895  10.475  1.00  0.00    -0.238 NA
ATOM     30  C   UNL     1      17.834  32.084   8.553  1.00  0.00     0.135 A 
ATOM     31  C   UNL     1      16.554  34.008   9.230  1.00  0.00     0.043 A 
ATOM     32  C   UNL     1      16.922  33.097   8.233  1.00  0.00     0.070 A 
ATOM     33  C   UNL     1      15.576  35.098   8.938  1.00  0.00     0.067 C 
BRANCH  30  34
ATOM     34  N   UNL     1      18.288  31.146   7.567  1.00  0.00    -0.323 N 
ATOM     35  H   UNL     1      19.274  31.222   7.244  1.00  0.00     0.170 HD
BRANCH  34  36
ATOM     36  C   UNL     1      17.481  30.087   7.033  1.00  0.00     0.153 A 
ATOM     37  N   UNL     1      17.999  28.925   6.586  1.00  0.00    -0.158 NA
ATOM     38  C   UNL     1      16.094  30.049   6.983  1.00  0.00     0.071 A 
ATOM     39  N   UNL     1      16.983  28.150   6.237  1.00  0.00    -0.281 N 
ATOM     40  C   UNL     1      15.823  28.796   6.471  1.00  0.00     0.034 A 
ATOM     41  H   UNL     1      17.084  27.178   5.877  1.00  0.00     0.190 HD
ATOM     42  C   UNL     1      14.465  28.232   6.195  1.00  0.00     0.066 C 
ENDBRANCH  34  36
ENDBRANCH  30  34
ENDBRANCH   4  27
TORSDOF 8
ENDMDL
MODEL 14
REMARK VINA RESULT:    -8.856      6.423     12.671
REMARK INTER + INTRA:         -14.404
REMARK INTER:                 -13.187
REMARK INTRA:                  -1.217
REMARK UNBOUND:                -1.406
REMARK SMILES CO[C@]1(C(=O)N[C@@H](C)c2ccc(-n3cc(F)cn3)nc2)CC[C@H](c2nc(C)cc(Nc3cc(C)[nH]n3)n2)CC1
REMARK SMILES IDX 3 1 21 2 22 3 23 4 38 5 39 6 2 7 1 8 4 9 5 10 6 11 7 13 8 14
REMARK SMILES IDX 9 15 10 16 20 17 11 18 19 19 12 20 13 21 14 22 18 23 15 24
REMARK SMILES IDX 17 25 16 26 24 27 37 28 25 29 29 30 26 31 28 32 27 33 30 34
REMARK SMILES IDX 31 36 36 37 32 38 35 39 33 40 34 42
REMARK H PARENT 6 12 30 35 35 41
REMARK Flexibility Score: inf
ROOT
ATOM      1  C   UNL     1      19.287  36.670  19.217  1.00  0.00     0.146 C 
ATOM      2  C   UNL     1      19.516  35.131  19.322  1.00  0.00     0.046 C 
ATOM      3  C   UNL     1      19.580  34.477  17.935  1.00  0.00     0.015 C 
ATOM      4  C   UNL     1      18.290  34.743  17.137  1.00  0.00     0.058 C 
ATOM      5  C   UNL     1      17.985  36.257  17.059  1.00  0.00     0.015 C 
ATOM      6  C   UNL     1      17.959  36.897  18.456  1.00  0.00     0.046 C 
ENDROOT
BRANCH   1   7
ATOM      7  O   UNL     1      20.320  37.324  18.472  1.00  0.00    -0.368 OA
ATOM      8  C   UNL     1      21.605  37.207  19.056  1.00  0.00     0.196 C 
ENDBRANCH   1   7
BRANCH   1   9
ATOM      9  C   UNL     1      19.126  37.307  20.590  1.00  0.00     0.252 C 
ATOM     10  O   UNL     1      19.115  36.583  21.624  1.00  0.00    -0.272 OA
ATOM     11  N   UNL     1      18.920  38.726  20.706  1.00  0.00    -0.347 N 
ATOM     12  H   UNL     1      18.864  39.298  19.830  1.00  0.00     0.164 HD
BRANCH  11  13
ATOM     13  C   UNL     1      18.803  39.421  21.995  1.00  0.00     0.111 C 
ATOM     14  C   UNL     1      20.146  40.053  22.362  1.00  0.00     0.036 C 
BRANCH  13  15
ATOM     15  C   UNL     1      17.712  40.475  21.961  1.00  0.00    -0.007 A 
ATOM     16  C   UNL     1      17.125  40.907  20.757  1.00  0.00     0.011 A 
ATOM     17  C   UNL     1      17.344  41.131  23.149  1.00  0.00     0.119 A 
ATOM     18  C   UNL     1      16.181  41.937  20.764  1.00  0.00     0.049 A 
ATOM     19  N   UNL     1      16.434  42.141  23.129  1.00  0.00    -0.237 NA
ATOM     20  C   UNL     1      15.838  42.561  21.979  1.00  0.00     0.153 A 
BRANCH  20  21
ATOM     21  N   UNL     1      14.898  43.651  22.037  1.00  0.00    -0.220 N 
ATOM     22  C   UNL     1      14.156  44.154  21.024  1.00  0.00     0.156 A 
ATOM     23  N   UNL     1      14.655  44.336  23.149  1.00  0.00    -0.172 NA
ATOM     24  C   UNL     1      13.411  45.197  21.529  1.00  0.00     0.161 A 
ATOM     25  C   UNL     1      13.745  45.289  22.863  1.00  0.00     0.174 A 
ATOM     26  F   UNL     1      12.537  45.979  20.849  1.00  0.00    -0.204 F 
ENDBRANCH  20  21
ENDBRANCH  13  15
ENDBRANCH  11  13
ENDBRANCH   1   9
BRANCH   4  27
ATOM     27  C   UNL     1      18.424  34.135  15.766  1.00  0.00     0.134 A 
ATOM     28  N   UNL     1      17.435  34.294  14.843  1.00  0.00    -0.215 NA
ATOM     29  N   UNL     1      19.590  33.537  15.402  1.00  0.00    -0.238 NA
ATOM     30  C   UNL     1      17.577  33.858  13.565  1.00  0.00     0.135 A 
ATOM     31  C   UNL     1      19.777  33.066  14.141  1.00  0.00     0.043 A 
ATOM     32  C   UNL     1      18.762  33.217  13.188  1.00  0.00     0.070 A 
ATOM     33  C   UNL     1      21.063  32.400  13.781  1.00  0.00     0.067 C 
BRANCH  30  34
ATOM     34  N   UNL     1      16.481  34.005  12.651  1.00  0.00    -0.323 N 
ATOM     35  H   UNL     1      15.657  34.555  12.968  1.00  0.00     0.170 HD
BRANCH  34  36
ATOM     36  C   UNL     1      16.469  33.475  11.318  1.00  0.00     0.153 A 
ATOM     37  N   UNL     1      16.109  32.206  11.036  1.00  0.00    -0.158 NA
ATOM     38  C   UNL     1      16.717  34.179  10.147  1.00  0.00     0.071 A 
ATOM     39  N   UNL     1      16.136  32.073   9.719  1.00  0.00    -0.281 N 
ATOM     40  C   UNL     1      16.491  33.245   9.155  1.00  0.00     0.034 A 
ATOM     41  H   UNL     1      15.879  31.200   9.212  1.00  0.00     0.190 HD
ATOM     42  C   UNL     1      16.630  33.474   7.683  1.00  0.00     0.066 C 
ENDBRANCH  34  36
ENDBRANCH  30  34
ENDBRANCH   4  27
TORSDOF 8
ENDMDL
MODEL 15
REMARK VINA RESULT:    -8.818      2.663      5.084
REMARK INTER + INTRA:         -14.348
REMARK INTER:                 -13.415
REMARK INTRA:                  -0.933
REMARK UNBOUND:                -1.406
REMARK SMILES CO[C@]1(C(=O)N[C@@H](C)c2ccc(-n3cc(F)cn3)nc2)CC[C@H](c2nc(C)cc(Nc3cc(C)[nH]n3)n2)CC1
REMARK SMILES IDX 3 1 21 2 22 3 23 4 38 5 39 6 2 7 1 8 4 9 5 10 6 11 7 13 8 14
REMARK SMILES IDX 9 15 10 16 20 17 11 18 19 19 12 20 13 21 14 22 18 23 15 24
REMARK SMILES IDX 17 25 16 26 24 27 37 28 25 29 29 30 26 31 28 32 27 33 30 34
REMARK SMILES IDX 31 36 36 37 32 38 35 39 33 40 34 42
REMARK H PARENT 6 12 30 35 35 41
REMARK Flexibility Score: inf
ROOT
ATOM      1  C   UNL     1      23.001  35.183  15.111  1.00  0.00     0.146 C 
ATOM      2  C   UNL     1      22.312  36.366  15.858  1.00  0.00     0.046 C 
ATOM      3  C   UNL     1      20.823  36.084  16.101  1.00  0.00     0.015 C 
ATOM      4  C   UNL     1      20.085  35.824  14.775  1.00  0.00     0.058 C 
ATOM      5  C   UNL     1      20.770  34.699  13.966  1.00  0.00     0.015 C 
ATOM      6  C   UNL     1      22.266  34.985  13.764  1.00  0.00     0.046 C 
ENDROOT
BRANCH   1   7
ATOM      7  O   UNL     1      22.901  33.951  15.834  1.00  0.00    -0.368 OA
ATOM      8  C   UNL     1      23.211  32.808  15.057  1.00  0.00     0.196 C 
ENDBRANCH   1   7
BRANCH   1   9
ATOM      9  C   UNL     1      24.454  35.499  14.782  1.00  0.00     0.252 C 
ATOM     10  O   UNL     1      24.740  36.112  13.717  1.00  0.00    -0.272 OA
ATOM     11  N   UNL     1      25.505  35.043  15.652  1.00  0.00    -0.347 N 
ATOM     12  H   UNL     1      25.248  34.475  16.494  1.00  0.00     0.164 HD
BRANCH  11  13
ATOM     13  C   UNL     1      26.925  35.347  15.429  1.00  0.00     0.111 C 
ATOM     14  C   UNL     1      27.654  35.413  16.771  1.00  0.00     0.036 C 
BRANCH  13  15
ATOM     15  C   UNL     1      27.576  34.321  14.521  1.00  0.00    -0.007 A 
ATOM     16  C   UNL     1      28.790  34.574  13.854  1.00  0.00     0.011 A 
ATOM     17  C   UNL     1      26.904  33.119  14.237  1.00  0.00     0.119 A 
ATOM     18  C   UNL     1      29.314  33.633  12.965  1.00  0.00     0.049 A 
ATOM     19  N   UNL     1      27.426  32.225  13.356  1.00  0.00    -0.237 NA
ATOM     20  C   UNL     1      28.609  32.439  12.716  1.00  0.00     0.153 A 
BRANCH  20  21
ATOM     21  N   UNL     1      29.086  31.452  11.782  1.00  0.00    -0.220 N 
ATOM     22  C   UNL     1      28.346  30.636  10.997  1.00  0.00     0.156 A 
ATOM     23  N   UNL     1      30.376  31.205  11.587  1.00  0.00    -0.172 NA
ATOM     24  C   UNL     1      29.215  29.847  10.277  1.00  0.00     0.161 A 
ATOM     25  C   UNL     1      30.482  30.225  10.668  1.00  0.00     0.174 A 
ATOM     26  F   UNL     1      28.891  28.887   9.376  1.00  0.00    -0.204 F 
ENDBRANCH  20  21
ENDBRANCH  13  15
ENDBRANCH  11  13
ENDBRANCH   1   9
BRANCH   4  27
ATOM     27  C   UNL     1      18.645  35.495  15.068  1.00  0.00     0.134 A 
ATOM     28  N   UNL     1      17.880  34.860  14.137  1.00  0.00    -0.215 NA
ATOM     29  N   UNL     1      18.141  35.714  16.313  1.00  0.00    -0.238 NA
ATOM     30  C   UNL     1      16.617  34.447  14.414  1.00  0.00     0.135 A 
ATOM     31  C   UNL     1      16.876  35.337  16.637  1.00  0.00     0.043 A 
ATOM     32  C   UNL     1      16.079  34.692  15.683  1.00  0.00     0.070 A 
ATOM     33  C   UNL     1      16.349  35.608  18.007  1.00  0.00     0.067 C 
BRANCH  30  34
ATOM     34  N   UNL     1      15.840  33.832  13.377  1.00  0.00    -0.323 N 
ATOM     35  H   UNL     1      14.819  33.716  13.541  1.00  0.00     0.170 HD
BRANCH  34  36
ATOM     36  C   UNL     1      16.375  33.405  12.116  1.00  0.00     0.153 A 
ATOM     37  N   UNL     1      16.943  32.196  11.933  1.00  0.00    -0.158 NA
ATOM     38  C   UNL     1      16.310  34.096  10.914  1.00  0.00     0.071 A 
ATOM     39  N   UNL     1      17.257  32.099  10.650  1.00  0.00    -0.281 N 
ATOM     40  C   UNL     1      16.882  33.224  10.009  1.00  0.00     0.034 A 
ATOM     41  H   UNL     1      17.689  31.258  10.213  1.00  0.00     0.190 HD
ATOM     42  C   UNL     1      17.079  33.477   8.548  1.00  0.00     0.066 C 
ENDBRANCH  34  36
ENDBRANCH  30  34
ENDBRANCH   4  27
TORSDOF 8
ENDMDL
